<?xml version="1.0"?>
<VTKFile type="PolyData" version="0.1" byte_order="LittleEndian">
  <PolyData>
    <Piece NumberOfLines="64" NumberOfPoints="59">
      <PointData Scalars="poreRadius">
        <DataArray type="Float32" Name="poreRadius" NumberOfComponents="1" format="ascii">
          1.30457e-05 1.06179e-05 1.3756e-05 9.79099e-06 4.89638e-06 1.75981e-05 6.87903e-06 7.56348e-06 1.19987e-05 1.05259e-05 1.04714e-05 1.75193e-05
          1.13239e-05 8.65832e-06 6.11201e-06 8.18451e-06 1.30813e-05 8.01357e-06 6.97363e-06 1.12047e-05 1.3408e-05 1.43416e-05 1.27359e-05 7.2796e-06
          9.25376e-06 1.04786e-05 7.78319e-06 8.64973e-06 1.0822e-05 9.08584e-06 1.06275e-05 6.22346e-06 9.32419e-06 1.06642e-05 7.69873e-06 1.10826e-05
          9.73396e-06 8.36824e-06 8.56052e-06 8.3252e-06 6.48675e-06 6.28306e-06 1.35925e-05 8.46122e-06 9.0357e-06 8.87285e-06 1.11091e-05 1.21629e-05
          8.78362e-06 6.20711e-06 1.14372e-05 9.08583e-06 1.1706e-05 1.09785e-05 9.15211e-06 1.13231e-05 1.04234e-05 1.39527e-05 1.17909e-05
        </DataArray>
        <DataArray type="Float32" Name="poreVolume" NumberOfComponents="1" format="ascii">
          9.30008e-15 5.01425e-15 1.09035e-14 3.93159e-15 4.91715e-16 2.28291e-14 1.36355e-15 1.8124e-15 7.23584e-15 4.88505e-15 4.80948e-15 2.25237e-14
          6.08234e-15 2.71888e-15 9.56401e-16 2.2965e-15 9.37645e-15 2.15559e-15 1.42058e-15 5.89236e-15 1.00968e-14 1.2356e-14 8.65329e-15 1.61589e-15
          3.31928e-15 4.81945e-15 1.97497e-15 2.71079e-15 5.30896e-15 3.14183e-15 5.02792e-15 1.00968e-15 3.39564e-15 5.08014e-15 1.91137e-15 5.70188e-15
          3.86329e-15 2.45466e-15 2.62778e-15 2.41698e-15 1.14332e-15 1.03897e-15 1.05192e-14 2.53739e-15 3.09011e-15 2.92602e-15 5.7428e-15 7.53698e-15
          2.83863e-15 1.00175e-15 6.26688e-15 3.14183e-15 6.71908e-15 5.54268e-15 3.21109e-15 6.08106e-15 4.74376e-15 1.13779e-14 6.86634e-15
        </DataArray>
        <DataArray type="Float32" Name="poreLabel" NumberOfComponents="1" format="ascii">
          2 -1 1 1 -1 1 -1 3 2 -1 3 3
          1 -1 -1 1 3 2 -1 1 3 1 -1 -1
          -1 -1 -1 -1 2 -1 1 -1 1 1 -1 1
          -1 3 -1 2 2 -1 -1 -1 -1 -1 -1 3
          1 1 2 1 3 1 1 2 3 1 1
        </DataArray>
      </PointData>
      <CellData Scalars="throatRadius">
        <DataArray type="Float32" Name="throatRadius" NumberOfComponents="1" format="ascii">
          8.45953e-06 7.99094e-06 4.04162e-06 6.30139e-06 6.8334e-06 8.23596e-06 5.20901e-06 6.7334e-06 6.71507e-06 6.84971e-06 5.82615e-06 7.80545e-06
          4.1742e-06 6.78634e-06 6.17197e-06 5.74815e-06 5.67154e-06 7.68111e-06 4.32699e-06 7.12725e-06 3.46565e-06 5.35456e-06 5.97625e-06 4.62724e-06
          2.96394e-06 3.35706e-06 6.665e-06 7.0092e-06 4.85346e-06 7.64077e-06 6.12897e-06 4.92992e-06 6.42985e-06 5.2604e-06 5.291e-06 6.42775e-06
          5.2321e-06 5.15444e-06 5.42194e-06 6.3625e-06 3.89119e-06 5.68782e-06 7.51818e-06 5.04436e-06 4.41062e-06 4.81907e-06 4.44829e-06 5.88727e-06
          5.99724e-06 5.49304e-06 6.89767e-06 6.70761e-06 7.57611e-06 5.8321e-06 7.87174e-06 4.40416e-06 5.35814e-06 6.7964e-06 4.78537e-06 5.81809e-06
          7.36064e-06 7.3334e-06 6.39053e-06 4.39286e-06
        </DataArray>
        <DataArray type="Float32" Name="throatlength" NumberOfComponents="1" format="ascii">
          0.000224398 0.000328356 0.000237116 0.000332095 0.000332024 0.000324317 0.000332604 0.000331953 0.000225663 0.000223237 0.000407265 0.000408981
          0.000234512 0.000333009 0.000331532 0.000414357 0.000411161 0.000226543 0.000334033 0.000409793 0.000335921 0.000409361 0.000334409 0.000234571
          0.000231379 0.000337516 0.000333269 0.000332345 0.000416491 0.000327722 0.00040911 0.000415354 0.000330126 0.000231928 0.000336672 0.000333613
          0.00033507 0.000417153 0.000231024 0.000227827 0.00042091 0.000333148 0.000227282 0.000337888 0.000340149 0.000338756 0.000333017 0.000415066
          0.000223189 0.000415854 0.000332684 0.000332507 0.000409804 0.000415356 0.000321308 0.000415352 0.000336769 0.000332113 0.00033838 0.000335841
          0.000410711 0.000408997 0.000410024 0.000415015
        </DataArray>
        <DataArray type="Float32" Name="throatLabel" NumberOfComponents="1" format="ascii">
          2 1 1 1 1 1 3 2 -1 3 3 1
          -1 1 3 3 2 1 3 3 -1 3 -1 -1
          -1 -1 -1 -1 -1 2 -1 -1 1 1 1 1
          1 3 -1 2 2 -1 -1 -1 -1 -1 -1 -1
          -1 -1 -1 3 3 1 1 2 1 3 2 1
          2 3 1 1
        </DataArray>
      </CellData>
      <Points>
        <DataArray type="Float32" Name="Coordinates" NumberOfComponents="3" format="ascii">
          0 0.00025 0.00025 0.00025 0.00025 0.00025 0.00025 0 0 0.00075 0.00025 0
          0.00075 0.00025 0.00025 0.00075 0 0.00025 0.0005 0.00025 0.00025 0.001 0 0.00025
          0 0.0005 0.00025 0.00075 0.0005 0.00025 0.001 0.0005 0.00025 0.001 0.00025 0
          0.00025 0.0005 0 0.0005 0.00075 0.00025 0.00075 0.00075 0.00025 0.00075 0.00075 0
          0.001 0.00075 0 0 0.001 0 0.00025 0.00075 0.00025 0.0005 0.001 0.00025
          0.001 0.001 0.00025 0.00075 0.001 0.00025 0.0005 0.00025 0.0005 0.00075 0.00025 0.0005
          0.00025 0.0005 0.0005 0.0005 0.0005 0.00025 0.0005 0.0005 0.0005 0.00075 0.0005 0.0005
          0 0.00075 0.0005 0.00075 0.00075 0.0005 0.00025 0 0.00075 0.00025 0.00025 0.00075
          0.00025 0 0.0005 0.0005 0 0.0005 0.0005 0.00025 0.00075 0.00075 0 0.0005
          0.00075 0.00025 0.00075 0.001 0 0.0005 0.00025 0.0005 0.00075 0 0.0005 0.00075
          0 0.00025 0.0005 0.0005 0.0005 0.00075 0.00075 0.0005 0.00075 0.00025 0.00075 0.00075
          0.0005 0.00075 0.00075 0.0005 0.00075 0.0005 0.00075 0.00075 0.00075 0.001 0.00075 0.0005
          0.00025 0.001 0.00075 0.0005 0.001 0.00075 0 0 0.001 0.00075 0.00025 0.001
          0.001 0.00025 0.001 0.00025 0.0005 0.001 0.00025 0.00075 0.001 0 0.00075 0.00075
          0.001 0.00075 0.001 0.00025 0.001 0.001 0.00075 0.00075 0.001
        </DataArray>
      </Points>
      <Lines>
        <DataArray type="Int32" Name="connectivity" NumberOfComponents="1" format="ascii">
          0 1 2 1 3 4 3 5 3 6 5 6
          7 4 1 8 4 9 9 10 11 9 12 13
          13 14 15 13 16 14 15 10 17 18 13 19
          14 20 16 21 4 22 7 23 1 24 25 26
          24 26 6 26 25 24 9 23 6 27 24 28
          13 24 18 26 21 29 30 31 32 31 33 34
          35 36 37 36 24 38 39 38 40 38 31 41
          36 42 23 42 27 41 26 42 36 41 27 34
          38 43 24 44 45 46 47 46 47 42 45 48
          46 49 31 50 34 51 36 52 39 53 38 54
          55 53 42 56 44 57 49 58
        </DataArray>
        <DataArray type="Int32" Name="offsets" NumberOfComponents="1" format="ascii">
          2 4 6 8 10 12 14 16 18 20 22 24
          26 28 30 32 34 36 38 40 42 44 46 48
          50 52 54 56 58 60 62 64 66 68 70 72
          74 76 78 80 82 84 86 88 90 92 94 96
          98 100 102 104 106 108 110 112 114 116 118 120
          122 124 126 128
        </DataArray>
      </Lines>
    </Piece>
  </PolyData>
</VTKFile>
