<?xml version="1.0"?>
<VTKFile type="UnstructuredGrid" version="0.1" byte_order="LittleEndian">
  <UnstructuredGrid>
    <Piece NumberOfCells="4096" NumberOfPoints="4225">
      <CellData Scalars="S_liq">
        <DataArray type="Float32" Name="S_liq" NumberOfComponents="1" format="ascii">
          1 1 1 1 1 1 1 1 1 1 1 1
          1 1 1 1 1 1 1 1 1 1 0.995452 0.900447
          0.836428 0.833551 0.833395 0.833375 0.833371 0.833375 0.833305 0.831439 0.804498 0.80536 0.805962 0.806122
          0.806179 0.806239 0.806601 0.811402 0.889295 0.998635 1 1 1 1 1 1
          1 1 1 1 1 1 1 1 1 1 1 1
          1 1 1 1 1 1 1 1 1 1 1 1
          1 1 1 1 1 1 1 1 1 1 1 1
          1 1 1 0.936617 0.862234 0.857538 0.856845 0.856541 0.856438 0.856535 0.85674 0.854552
          0.821269 0.82207 0.823243 0.823818 0.824234 0.824701 0.825736 0.833431 0.920836 1 1 1
          1 1 1 1 1 1 1 1 1 1 1 1
          1 1 1 1 1 1 1 1 1 1 1 1
          1 1 1 1 1 1 1 1 1 1 1 1
          1 1 1 1 1 1 1 1 0.919465 0.909723 0.906976 0.905612
          0.905139 0.905519 0.906773 0.905668 0.859309 0.860516 0.863153 0.864935 0.866537 0.868445 0.871625 0.885102
          0.995622 1 1 1 1 1 1 1 1 1 1 1
          1 1 1 1 1 1 1 1 1 1 1 1
          1 1 1 1 1 1 1 1 1 1 1 1
          1 1 1 1 1 1 1 1 1 1 1 1
          1 0.995926 0.993209 0.99173 0.991197 0.991572 0.992895 0.993117 0.94559 0.950941 0.956029 0.95946
          0.962608 0.966305 0.971794 0.986977 1 1 1 1 1 1 1 1
          1 1 1 1 1 1 1 1 1 1 1 1
          1 1 1 1 1 1 1 1 1 1 1 1
          1 1 1 1 1 1 1 1 1 1 1 1
          1 1 1 1 1 1 1 1 1 1 1 1
          1 1 1 1 1 1 1 1 1 1 1 1
          1 1 1 1 1 1 1 1 1 1 1 1
          1 1 1 1 1 1 1 1 1 1 1 1
          1 1 1 1 1 1 1 1 1 1 1 1
          1 1 1 1 1 1 1 1 1 1 1 1
          1 1 1 1 1 1 1 1 1 1 1 1
          1 1 1 1 1 1 1 1 1 1 1 1
          1 1 1 1 1 1 1 1 1 1 1 1
          1 1 1 1 1 1 1 1 1 1 1 1
          1 1 1 1 1 1 1 1 1 1 1 1
          1 1 1 1 1 1 1 1 1 1 1 1
          1 1 1 1 1 1 1 1 1 1 1 1
          1 1 1 1 1 1 1 1 1 1 1 1
          1 1 1 1 1 1 1 1 1 1 1 1
          1 1 1 1 1 1 1 1 1 1 1 1
          1 1 1 1 1 1 1 1 1 1 1 1
          1 1 1 1 1 1 1 1 1 1 1 1
          1 1 1 1 1 1 1 1 1 1 1 1
          1 1 1 1 1 1 1 1 1 1 1 1
          1 1 1 1 1 1 1 1 1 1 1 1
          1 1 1 1 1 1 1 1 1 1 1 1
          1 1 1 1 1 1 1 1 1 1 1 1
          1 1 1 1 1 1 1 1 1 1 1 1
          1 1 1 1 1 1 1 1 1 1 1 1
          1 1 1 1 1 1 1 1 1 1 1 1
          1 1 1 1 1 1 1 1 1 1 1 1
          1 1 1 1 1 1 1 1 1 1 1 1
          1 1 1 1 1 1 1 1 1 1 1 1
          1 1 1 1 1 1 1 1 1 1 1 1
          1 1 1 1 1 1 1 1 1 1 1 1
          1 1 1 1 1 1 1 1 1 1 1 1
          1 1 1 1 1 1 1 1 1 1 1 1
          1 1 1 1 1 1 1 1 1 1 1 1
          1 1 1 1 1 1 1 1 1 1 1 1
          1 1 1 1 1 1 1 1 1 1 1 1
          1 1 1 1 1 1 1 1 1 1 1 1
          1 1 1 1 1 1 1 1 1 1 1 1
          1 1 1 1 1 1 1 1 1 1 1 1
          1 1 1 1 1 1 1 1 1 1 1 1
          1 1 1 1 1 1 1 1 1 1 1 1
          1 1 1 1 1 1 1 1 1 1 1 1
          1 1 1 1 1 1 1 1 1 1 1 1
          1 1 1 1 1 1 1 1 1 1 1 1
          1 1 1 1 1 1 1 1 1 1 1 1
          1 1 1 1 1 1 1 1 1 1 1 1
          1 1 1 1 1 1 1 1 1 1 1 1
          1 1 1 1 1 1 1 1 1 1 1 1
          1 1 1 1 1 1 1 1 1 1 1 1
          1 1 1 1 1 1 1 1 1 1 1 1
          1 1 1 1 1 1 1 1 1 1 1 1
          1 1 1 1 1 1 1 1 1 1 1 1
          1 1 1 1 1 1 1 1 1 1 1 1
          1 1 1 1 1 1 1 1 1 1 1 1
          1 1 1 1 1 1 1 1 1 1 1 1
          1 1 1 1 1 1 1 1 1 1 1 1
          1 1 1 1 1 1 1 1 1 1 1 1
          1 1 1 1 1 1 1 1 1 1 1 1
          1 1 1 1 1 1 1 1 1 1 1 1
          1 1 1 1 1 1 1 1 1 1 1 1
          1 1 1 1 1 1 1 1 1 1 1 1
          1 1 1 1 1 1 1 1 1 1 1 1
          1 1 1 1 1 1 1 1 1 1 1 1
          1 1 1 1 1 1 1 1 1 1 1 1
          1 1 1 1 1 1 1 1 1 1 1 1
          1 1 1 1 1 1 1 1 1 1 1 1
          1 1 1 1 1 1 1 1 1 1 1 1
          1 1 1 1 1 1 1 1 1 1 1 1
          1 1 1 1 1 1 1 1 1 1 1 1
          1 1 1 1 1 1 1 1 1 1 1 1
          1 1 1 1 1 1 1 1 1 1 1 1
          1 1 1 1 1 1 1 1 1 1 1 1
          1 1 1 1 1 1 1 1 1 1 1 1
          1 1 1 1 1 1 1 1 1 1 1 1
          1 1 1 1 1 1 1 1 1 1 1 1
          1 1 1 1 1 1 1 1 1 1 1 1
          1 1 1 1 1 1 1 1 1 1 1 1
          1 1 1 1 1 1 1 1 1 1 1 1
          1 1 1 1 1 1 1 1 1 1 1 1
          1 1 1 1 1 1 1 1 1 1 1 1
          1 1 1 1 1 1 1 1 1 1 1 1
          1 1 1 1 1 1 1 1 1 1 1 1
          1 1 1 1 1 1 1 1 1 1 1 1
          1 1 1 1 1 1 1 1 1 1 1 1
          1 1 1 1 1 1 1 1 1 1 1 1
          1 1 1 1 1 1 1 1 1 1 1 1
          1 1 1 1 1 1 1 1 1 1 1 1
          1 1 1 1 1 1 1 1 1 1 1 1
          1 1 1 1 1 1 1 1 1 1 1 1
          1 1 1 1 1 1 1 1 1 1 1 1
          1 1 1 1 1 1 1 1 1 1 1 1
          1 1 1 1 1 1 1 1 1 1 1 1
          1 1 1 1 1 1 1 1 1 1 1 1
          1 1 1 1 1 1 1 1 1 1 1 1
          1 1 1 1 1 1 1 1 1 1 1 1
          1 1 1 1 1 1 1 1 1 1 1 1
          1 1 1 1 1 1 1 1 1 1 1 1
          1 1 1 1 1 1 1 1 1 1 1 1
          1 1 1 1 1 1 1 1 1 1 1 1
          1 1 1 1 1 1 1 1 1 1 1 1
          1 1 1 1 1 1 1 1 1 1 1 1
          1 1 1 1 1 1 1 1 1 1 1 1
          1 1 1 1 1 1 1 1 1 1 1 1
          1 1 1 1 1 1 1 1 1 1 1 1
          1 1 1 1 1 1 1 1 1 1 1 1
          1 1 1 1 1 1 1 1 1 1 1 1
          1 1 1 1 1 1 1 1 1 1 1 1
          1 1 1 1 1 1 1 1 1 1 1 1
          1 1 1 1 1 1 1 1 1 1 1 1
          1 1 1 1 1 1 1 1 1 1 1 1
          1 1 1 1 1 1 1 1 1 1 1 1
          1 1 1 1 1 1 1 1 1 1 1 1
          1 1 1 1 1 1 1 1 1 1 1 1
          1 1 1 1 1 1 1 1 1 1 1 1
          1 1 1 1 1 1 1 1 1 1 1 1
          1 1 1 1 1 1 1 1 1 1 1 1
          1 1 1 1 1 1 1 1 1 1 1 1
          1 1 1 1 1 1 1 1 1 1 1 1
          1 1 1 1 1 1 1 1 1 1 1 1
          1 1 1 1 1 1 1 1 1 1 1 1
          1 1 1 1 1 1 1 1 1 1 1 1
          1 1 1 1 1 1 1 1 1 1 1 1
          1 1 1 1 1 1 1 1 1 1 1 1
          1 1 1 1 1 1 1 1 1 1 1 1
          1 1 1 1 1 1 1 1 1 1 1 1
          1 1 1 1 1 1 1 1 1 1 1 1
          1 1 1 1 1 1 1 1 1 1 1 1
          1 1 1 1 1 1 1 1 1 1 1 1
          1 1 1 1 1 1 1 1 1 1 1 1
          1 1 1 1 1 1 1 1 1 1 1 1
          1 1 1 1 1 1 1 1 1 1 1 1
          1 1 1 1 1 1 1 1 1 1 1 1
          1 1 1 1 1 1 1 1 1 1 1 1
          1 1 1 1 1 1 1 1 1 1 1 1
          1 1 1 1 1 1 1 1 1 1 1 1
          1 1 1 1 1 1 1 1 1 1 1 1
          1 1 1 1 1 1 1 1 1 1 1 1
          1 1 1 1 1 1 1 1 1 1 1 1
          1 1 1 1 1 1 1 1 1 1 1 1
          1 1 1 1 1 1 1 1 1 1 1 1
          1 1 1 1 1 1 1 1 1 1 1 1
          1 1 1 1 1 1 1 1 1 1 1 1
          1 1 1 1 1 1 1 1 1 1 1 1
          1 1 1 1 1 1 1 1 1 1 1 1
          1 1 1 1 1 1 1 1 1 1 1 1
          1 1 1 1 1 1 1 1 1 1 1 1
          1 1 1 1 1 1 1 1 1 1 1 1
          1 1 1 1 1 1 1 1 1 1 1 1
          1 1 1 1 1 1 1 1 1 1 1 1
          1 1 1 1 1 1 1 1 1 1 1 1
          1 1 1 1 1 1 1 1 1 1 1 1
          1 1 1 1 1 1 1 1 1 1 1 1
          1 1 1 1 1 1 1 1 1 1 1 1
          1 1 1 1 1 1 1 1 1 1 1 1
          1 1 1 1 1 1 1 1 1 1 1 1
          1 1 1 1 1 1 1 1 1 1 1 1
          1 1 1 1 1 1 1 1 1 1 1 1
          1 1 1 1 1 1 1 1 1 1 1 1
          1 1 1 1 1 1 1 1 1 1 1 1
          1 1 1 1 1 1 1 1 1 1 1 1
          1 1 1 1 1 1 1 1 1 1 1 1
          1 1 1 1 1 1 1 1 1 1 1 1
          1 1 1 1 1 1 1 1 1 1 1 1
          1 1 1 1 1 1 1 1 1 1 1 1
          1 1 1 1 1 1 1 1 1 1 1 1
          1 1 1 1 1 1 1 1 1 1 1 1
          1 1 1 1 1 1 1 1 1 1 1 1
          1 1 1 1 1 1 1 1 1 1 1 1
          1 1 1 1 1 1 1 1 1 1 1 1
          1 1 1 1 1 1 1 1 1 1 1 1
          1 1 1 1 1 1 1 1 1 1 1 1
          1 1 1 1 1 1 1 1 1 1 1 1
          1 1 1 1 1 1 1 1 1 1 1 1
          1 1 1 1 1 1 1 1 1 1 1 1
          1 1 1 1 1 1 1 1 1 1 1 1
          1 1 1 1 1 1 1 1 1 1 1 1
          1 1 1 1 1 1 1 1 1 1 1 1
          1 1 1 1 1 1 1 1 1 1 1 1
          1 1 1 1 1 1 1 1 1 1 1 1
          1 1 1 1 1 1 1 1 1 1 1 1
          1 1 1 1 1 1 1 1 1 1 1 1
          1 1 1 1 1 1 1 1 1 1 1 1
          1 1 1 1 1 1 1 1 1 1 1 1
          1 1 1 1 1 1 1 1 1 1 1 1
          1 1 1 1 1 1 1 1 1 1 1 1
          1 1 1 1 1 1 1 1 1 1 1 1
          1 1 1 1 1 1 1 1 1 1 1 1
          1 1 1 1 1 1 1 1 1 1 1 1
          1 1 1 1 1 1 1 1 1 1 1 1
          1 1 1 1 1 1 1 1 1 1 1 1
          1 1 1 1 1 1 1 1 1 1 1 1
          1 1 1 1 1 1 1 1 1 1 1 1
          1 1 1 1 1 1 1 1 1 1 1 1
          1 1 1 1 1 1 1 1 1 1 1 1
          1 1 1 1 1 1 1 1 1 1 1 1
          1 1 1 1 1 1 1 1 1 1 1 1
          1 1 1 1 1 1 1 1 1 1 1 1
          1 1 1 1 1 1 1 1 1 1 1 1
          1 1 1 1 1 1 1 1 1 1 1 1
          1 1 1 1 1 1 1 1 1 1 1 1
          1 1 1 1 1 1 1 1 1 1 1 1
          1 1 1 1 1 1 1 1 1 1 1 1
          1 1 1 1 1 1 1 1 1 1 1 1
          1 1 1 1 1 1 1 1 1 1 1 1
          1 1 1 1 1 1 1 1 1 1 1 1
          1 1 1 1 1 1 1 1 1 1 1 1
          1 1 1 1 1 1 1 1 1 1 1 1
          1 1 1 1 1 1 1 1 1 1 1 1
          1 1 1 1 1 1 1 1 1 1 1 1
          1 1 1 1 1 1 1 1 1 1 1 1
          1 1 1 1 1 1 1 1 1 1 1 1
          1 1 1 1 1 1 1 1 1 1 1 1
          1 1 1 1 1 1 1 1 1 1 1 1
          1 1 1 1 1 1 1 1 1 1 1 1
          1 1 1 1 1 1 1 1 1 1 1 1
          1 1 1 1 1 1 1 1 1 1 1 1
          1 1 1 1 1 1 1 1 1 1 1 1
          1 1 1 1 1 1 1 1 1 1 1 1
          1 1 1 1 1 1 1 1 1 1 1 1
          1 1 1 1 1 1 1 1 1 1 1 1
          1 1 1 1 1 1 1 1 1 1 1 1
          1 1 1 1 1 1 1 1 1 1 1 1
          1 1 1 1 1 1 1 1 1 1 1 1
          1 1 1 1 1 1 1 1 1 1 1 1
          1 1 1 1 1 1 1 1 1 1 1 1
          1 1 1 1 1 1 1 1 1 1 1 1
          1 1 1 1 1 1 1 1 1 1 1 1
          1 1 1 1 1 1 1 1 1 1 1 1
          1 1 1 1 1 1 1 1 1 1 1 1
          1 1 1 1 1 1 1 1 1 1 1 1
          1 1 1 1 1 1 1 1 1 1 1 1
          1 1 1 1 1 1 1 1 1 1 1 1
          1 1 1 1 1 1 1 1 1 1 1 1
          1 1 1 1 1 1 1 1 1 1 1 1
          1 1 1 1 1 1 1 1 1 1 1 1
          1 1 1 1 1 1 1 1 1 1 1 1
          1 1 1 1 1 1 1 1 1 1 1 1
          1 1 1 1 1 1 1 1 1 1 1 1
          1 1 1 1 1 1 1 1 1 1 1 1
          1 1 1 1 1 1 1 1 1 1 1 1
          1 1 1 1 1 1 1 1 1 1 1 1
          1 1 1 1 1 1 1 1 1 1 1 1
          1 1 1 1 1 1 1 1 1 1 1 1
          1 1 1 1 1 1 1 1 1 1 1 1
          1 1 1 1 1 1 1 1 1 1 1 1
          1 1 1 1 1 1 1 1 1 1 1 1
          1 1 1 1 1 1 1 1 1 1 1 1
          1 1 1 1 1 1 1 1 1 1 1 1
          1 1 1 1 1 1 1 1 1 1 1 1
          1 1 1 1 1 1 1 1 1 1 1 1
          1 1 1 1 1 1 1 1 1 1 1 1
          1 1 1 1 1 1 1 1 1 1 1 1
          1 1 1 1 1 1 1 1 1 1 1 1
          1 1 1 1 1 1 1 1 1 1 1 1
          1 1 1 1 1 1 1 1 1 1 1 1
          1 1 1 1 1 1 1 1 1 1 1 1
          1 1 1 1 1 1 1 1 1 1 1 1
          1 1 1 1 1 1 1 1 1 1 1 1
          1 1 1 1 1 1 1 1 1 1 1 1
          1 1 1 1 1 1 1 1 1 1 1 1
          1 1 1 1 1 1 1 1 1 1 1 1
          1 1 1 1 1 1 1 1 1 1 1 1
          1 1 1 1 1 1 1 1 1 1 1 1
          1 1 1 1 1 1 1 1 1 1 1 1
          1 1 1 1 1 1 1 1 1 1 1 1
          1 1 1 1 1 1 1 1 1 1 1 1
          1 1 1 1 1 1 1 1 1 1 1 1
          1 1 1 1 1 1 1 1 1 1 1 1
          1 1 1 1 1 1 1 1 1 1 1 1
          1 1 1 1 1 1 1 1 1 1 1 1
          1 1 1 1 1 1 1 1 1 1 1 1
          1 1 1 1 1 1 1 1 1 1 1 1
          1 1 1 1 1 1 1 1 1 1 1 1
          1 1 1 1 1 1 1 1 1 1 1 1
          1 1 1 1 1 1 1 1 1 1 1 1
          1 1 1 1 1 1 1 1 1 1 1 1
          1 1 1 1 1 1 1 1 1 1 1 1
          1 1 1 1 1 1 1 1 1 1 1 1
          1 1 1 1 1 1 1 1 1 1 1 1
          1 1 1 1 1 1 1 1 1 1 1 1
          1 1 1 1 1 1 1 1 1 1 1 1
          1 1 1 1 1 1 1 1 1 1 1 1
          1 1 1 1 1 1 1 1 1 1 1 1
          1 1 1 1 1 1 1 1 1 1 1 1
          1 1 1 1 1 1 1 1 1 1 1 1
          1 1 1 1 1 1 1 1 1 1 1 1
          1 1 1 1 1 1 1 1 1 1 1 1
          1 1 1 1 1 1 1 1 1 1 1 1
          1 1 1 1 1 1 1 1 1 1 1 1
          1 1 1 1 1 1 1 1 1 1 1 1
          1 1 1 1 1 1 1 1 1 1 1 1
          1 1 1 1 1 1 1 1 1 1 1 1
          1 1 1 1 1 1 1 1 1 1 1 1
          1 1 1 1 1 1 1 1 1 1 1 1
          1 1 1 1 1 1 1 1 1 1 1 1
          1 1 1 1 1 1 1 1 1 1 1 1
          1 1 1 1 1 1 1 1 1 1 1 1
          1 1 1 1 1 1 1 1 1 1 1 1
          1 1 1 1 1 1 1 1 1 1 1 1
          1 1 1 1 1 1 1 1 1 1 1 1
          1 1 1 1 1 1 1 1 1 1 1 1
          1 1 1 1 1 1 1 1 1 1 1 1
          1 1 1 1 1 1 1 1 1 1 1 1
          1 1 1 1 1 1 1 1 1 1 1 1
          1 1 1 1 1 1 1 1 1 1 1 1
          1 1 1 1 1 1 1 1 1 1 1 1
          1 1 1 1 1 1 1 1 1 1 1 1
          1 1 1 1 1 1 1 1 1 1 1 1
          1 1 1 1 1 1 1 1 1 1 1 1
          1 1 1 1 1 1 1 1 1 1 1 1
          1 1 1 1 1 1 1 1 1 1 1 1
          1 1 1 1 1 1 1 1 1 1 1 1
          1 1 1 1 1 1 1 1 1 1 1 1
          1 1 1 1 1 1 1 1 1 1 1 1
          1 1 1 1 1 1 1 1 1 1 1 1
          1 1 1 1 1 1 1 1 1 1 1 1
          1 1 1 1 1 1 1 1 1 1 1 1
          1 1 1 1 1 1 1 1 1 1 1 1
          1 1 1 1
        </DataArray>
        <DataArray type="Float32" Name="p_liq" NumberOfComponents="1" format="ascii">
          9.90737e+06 9.90825e+06 9.90914e+06 9.91004e+06 9.91095e+06 9.91187e+06 9.9128e+06 9.91375e+06 9.91471e+06 9.91569e+06 9.9167e+06 9.91772e+06
          9.91878e+06 9.91986e+06 9.92099e+06 9.92216e+06 9.92338e+06 9.92466e+06 9.92602e+06 9.92747e+06 9.92903e+06 9.93072e+06 9.9326e+06 9.93531e+06
          9.93799e+06 9.94021e+06 9.94189e+06 9.94305e+06 9.94371e+06 9.94387e+06 9.94352e+06 9.94263e+06 9.94111e+06 9.94024e+06 9.93936e+06 9.93838e+06
          9.93728e+06 9.93602e+06 9.93455e+06 9.93285e+06 9.93096e+06 9.92933e+06 9.92836e+06 9.92746e+06 9.92664e+06 9.92591e+06 9.92526e+06 9.9247e+06
          9.92425e+06 9.9232e+06 9.92203e+06 9.92086e+06 9.9197e+06 9.91854e+06 9.91739e+06 9.91626e+06 9.91513e+06 9.91401e+06 9.9129e+06 9.9118e+06
          9.9107e+06 9.90961e+06 9.90853e+06 9.90746e+06 9.90124e+06 9.90213e+06 9.90302e+06 9.90392e+06 9.90483e+06 9.90575e+06 9.90668e+06 9.90763e+06
          9.90859e+06 9.90956e+06 9.91056e+06 9.91158e+06 9.91263e+06 9.91371e+06 9.91483e+06 9.91599e+06 9.9172e+06 9.91848e+06 9.91982e+06 9.92125e+06
          9.92279e+06 9.92446e+06 9.9263e+06 9.9291e+06 9.93185e+06 9.93409e+06 9.93575e+06 9.93689e+06 9.93754e+06 9.93772e+06 9.93741e+06 9.93656e+06
          9.93504e+06 9.9342e+06 9.93334e+06 9.93241e+06 9.93135e+06 9.93012e+06 9.92869e+06 9.92699e+06 9.9251e+06 9.92343e+06 9.92242e+06 9.92151e+06
          9.92069e+06 9.91995e+06 9.9193e+06 9.91872e+06 9.9182e+06 9.91711e+06 9.91592e+06 9.91474e+06 9.91358e+06 9.91242e+06 9.91127e+06 9.91014e+06
          9.90901e+06 9.90789e+06 9.90678e+06 9.90568e+06 9.90458e+06 9.9035e+06 9.90242e+06 9.90134e+06 9.89512e+06 9.896e+06 9.8969e+06 9.89779e+06
          9.8987e+06 9.89962e+06 9.90054e+06 9.90148e+06 9.90244e+06 9.90341e+06 9.9044e+06 9.90542e+06 9.90646e+06 9.90753e+06 9.90863e+06 9.90978e+06
          9.91097e+06 9.91222e+06 9.91354e+06 9.91493e+06 9.91642e+06 9.91803e+06 9.91981e+06 9.92183e+06 9.92495e+06 9.9272e+06 9.92882e+06 9.92992e+06
          9.93056e+06 9.93075e+06 9.9305e+06 9.92977e+06 9.92835e+06 9.92758e+06 9.9268e+06 9.92593e+06 9.92495e+06 9.9238e+06 9.92244e+06 9.92078e+06
          9.91873e+06 9.91743e+06 9.91638e+06 9.91546e+06 9.91465e+06 9.91391e+06 9.91326e+06 9.91267e+06 9.91213e+06 9.91101e+06 9.90981e+06 9.90862e+06
          9.90745e+06 9.90629e+06 9.90514e+06 9.90401e+06 9.90288e+06 9.90176e+06 9.90066e+06 9.89956e+06 9.89846e+06 9.89737e+06 9.89629e+06 9.89521e+06
          9.88898e+06 9.88987e+06 9.89076e+06 9.89166e+06 9.89256e+06 9.89347e+06 9.8944e+06 9.89533e+06 9.89628e+06 9.89724e+06 9.89822e+06 9.89923e+06
          9.90025e+06 9.90131e+06 9.9024e+06 9.90352e+06 9.90468e+06 9.9059e+06 9.90717e+06 9.90851e+06 9.90993e+06 9.91144e+06 9.91307e+06 9.91483e+06
          9.91673e+06 9.91863e+06 9.92011e+06 9.92113e+06 9.92174e+06 9.92195e+06 9.92178e+06 9.92126e+06 9.92045e+06 9.91984e+06 9.91915e+06 9.91837e+06
          9.91748e+06 9.91644e+06 9.91524e+06 9.91383e+06 9.91238e+06 9.91122e+06 9.91021e+06 9.90932e+06 9.90852e+06 9.9078e+06 9.90715e+06 9.90656e+06
          9.90602e+06 9.90488e+06 9.90367e+06 9.90248e+06 9.9013e+06 9.90014e+06 9.899e+06 9.89787e+06 9.89674e+06 9.89563e+06 9.89452e+06 9.89342e+06
          9.89233e+06 9.89124e+06 9.89016e+06 9.88908e+06 9.88285e+06 9.88374e+06 9.88462e+06 9.88551e+06 9.88641e+06 9.88732e+06 9.88823e+06 9.88916e+06
          9.8901e+06 9.89105e+06 9.89202e+06 9.89301e+06 9.89402e+06 9.89506e+06 9.89612e+06 9.89722e+06 9.89835e+06 9.89952e+06 9.90074e+06 9.90201e+06
          9.90334e+06 9.90473e+06 9.90619e+06 9.90771e+06 9.90924e+06 9.91068e+06 9.91186e+06 9.91274e+06 9.91328e+06 9.91351e+06 9.91341e+06 9.91299e+06
          9.9122e+06 9.91177e+06 9.91124e+06 9.9106e+06 9.90985e+06 9.90899e+06 9.90801e+06 9.90695e+06 9.90586e+06 9.90484e+06 9.90392e+06 9.90308e+06
          9.90232e+06 9.90162e+06 9.90098e+06 9.9004e+06 9.89986e+06 9.89872e+06 9.89751e+06 9.89632e+06 9.89514e+06 9.89399e+06 9.89285e+06 9.89172e+06
          9.8906e+06 9.88949e+06 9.88838e+06 9.88729e+06 9.8862e+06 9.88511e+06 9.88403e+06 9.88295e+06 9.87672e+06 9.8776e+06 9.87848e+06 9.87936e+06
          9.88026e+06 9.88115e+06 9.88206e+06 9.88298e+06 9.8839e+06 9.88484e+06 9.8858e+06 9.88677e+06 9.88776e+06 9.88878e+06 9.88981e+06 9.89088e+06
          9.89197e+06 9.89309e+06 9.89425e+06 9.89545e+06 9.89668e+06 9.89796e+06 9.89926e+06 9.90057e+06 9.90184e+06 9.90302e+06 9.90401e+06 9.90476e+06
          9.90526e+06 9.90549e+06 9.90545e+06 9.90516e+06 9.90464e+06 9.90429e+06 9.90385e+06 9.90329e+06 9.90264e+06 9.90189e+06 9.90106e+06 9.90017e+06
          9.89926e+06 9.89837e+06 9.89754e+06 9.89676e+06 9.89605e+06 9.89538e+06 9.89476e+06 9.89419e+06 9.89366e+06 9.89253e+06 9.89132e+06 9.89013e+06
          9.88897e+06 9.88782e+06 9.88668e+06 9.88556e+06 9.88444e+06 9.88334e+06 9.88224e+06 9.88114e+06 9.88006e+06 9.87898e+06 9.8779e+06 9.87682e+06
          9.87058e+06 9.87146e+06 9.87233e+06 9.87321e+06 9.87409e+06 9.87498e+06 9.87588e+06 9.87678e+06 9.8777e+06 9.87862e+06 9.87956e+06 9.88052e+06
          9.88149e+06 9.88247e+06 9.88348e+06 9.88451e+06 9.88556e+06 9.88663e+06 9.88773e+06 9.88885e+06 9.89e+06 9.89115e+06 9.89232e+06 9.89346e+06
          9.89455e+06 9.89554e+06 9.89638e+06 9.89704e+06 9.89749e+06 9.89773e+06 9.89775e+06 9.89756e+06 9.8972e+06 9.89693e+06 9.89656e+06 9.89609e+06
          9.89552e+06 9.89488e+06 9.89417e+06 9.89341e+06 9.89263e+06 9.89185e+06 9.89111e+06 9.8904e+06 9.88972e+06 9.88909e+06 9.8885e+06 9.88794e+06
          9.88742e+06 9.8863e+06 9.88511e+06 9.88393e+06 9.88278e+06 9.88163e+06 9.8805e+06 9.87939e+06 9.87828e+06 9.87718e+06 9.87608e+06 9.875e+06
          9.87392e+06 9.87284e+06 9.87176e+06 9.87068e+06 9.86445e+06 9.86531e+06 9.86618e+06 9.86705e+06 9.86792e+06 9.8688e+06 9.86969e+06 9.87058e+06
          9.87148e+06 9.87239e+06 9.87331e+06 9.87424e+06 9.87519e+06 9.87615e+06 9.87712e+06 9.87812e+06 9.87912e+06 9.88014e+06 9.88118e+06 9.88223e+06
          9.88329e+06 9.88435e+06 9.88539e+06 9.8864e+06 9.88735e+06 9.88821e+06 9.88895e+06 9.88953e+06 9.88995e+06 9.89018e+06 9.89025e+06 9.89014e+06
          9.8899e+06 9.88969e+06 9.88938e+06 9.88898e+06 9.88849e+06 9.88794e+06 9.88732e+06 9.88667e+06 9.88599e+06 9.88531e+06 9.88464e+06 9.88398e+06
          9.88336e+06 9.88276e+06 9.8822e+06 9.88166e+06 9.88115e+06 9.88005e+06 9.87887e+06 9.87771e+06 9.87657e+06 9.87544e+06 9.87432e+06 9.87321e+06
          9.87211e+06 9.87101e+06 9.86993e+06 9.86884e+06 9.86777e+06 9.86669e+06 9.86562e+06 9.86455e+06 9.85831e+06 9.85917e+06 9.86002e+06 9.86088e+06
          9.86175e+06 9.86262e+06 9.86349e+06 9.86437e+06 9.86525e+06 9.86615e+06 9.86705e+06 9.86796e+06 9.86888e+06 9.86981e+06 9.87075e+06 9.87171e+06
          9.87267e+06 9.87364e+06 9.87462e+06 9.87561e+06 9.87659e+06 9.87756e+06 9.8785e+06 9.8794e+06 9.88025e+06 9.88101e+06 9.88166e+06 9.88219e+06
          9.88258e+06 9.88282e+06 9.88291e+06 9.88287e+06 9.8827e+06 9.88254e+06 9.88228e+06 9.88194e+06 9.88153e+06 9.88105e+06 9.88052e+06 9.87995e+06
          9.87936e+06 9.87875e+06 9.87814e+06 9.87755e+06 9.87697e+06 9.87641e+06 9.87587e+06 9.87535e+06 9.87485e+06 9.87378e+06 9.87262e+06 9.87148e+06
          9.87034e+06 9.86923e+06 9.86812e+06 9.86702e+06 9.86593e+06 9.86484e+06 9.86376e+06 9.86269e+06 9.86162e+06 9.86055e+06 9.85948e+06 9.85842e+06
          9.85218e+06 9.85302e+06 9.85387e+06 9.85472e+06 9.85557e+06 9.85642e+06 9.85728e+06 9.85815e+06 9.85902e+06 9.85989e+06 9.86077e+06 9.86166e+06
          9.86256e+06 9.86346e+06 9.86437e+06 9.86529e+06 9.86621e+06 9.86714e+06 9.86806e+06 9.86898e+06 9.86989e+06 9.87079e+06 9.87165e+06 9.87247e+06
          9.87323e+06 9.87391e+06 9.8745e+06 9.87498e+06 9.87535e+06 9.87559e+06 9.87571e+06 9.87572e+06 9.87562e+06 9.87549e+06 9.87528e+06 9.87499e+06
          9.87463e+06 9.87422e+06 9.87376e+06 9.87326e+06 9.87273e+06 9.87219e+06 9.87164e+06 9.8711e+06 9.87056e+06 9.87003e+06 9.86952e+06 9.86902e+06
          9.86854e+06 9.86748e+06 9.86635e+06 9.86522e+06 9.86411e+06 9.86301e+06 9.86191e+06 9.86082e+06 9.85974e+06 9.85867e+06 9.8576e+06 9.85653e+06
          9.85546e+06 9.8544e+06 9.85334e+06 9.85228e+06 9.84604e+06 9.84687e+06 9.84771e+06 9.84855e+06 9.84939e+06 9.85023e+06 9.85107e+06 9.85192e+06
          9.85278e+06 9.85363e+06 9.85449e+06 9.85536e+06 9.85623e+06 9.85711e+06 9.85798e+06 9.85887e+06 9.85975e+06 9.86063e+06 9.8615e+06 9.86237e+06
          9.86322e+06 9.86405e+06 9.86484e+06 9.86559e+06 9.86628e+06 9.86691e+06 9.86745e+06 9.8679e+06 9.86825e+06 9.86849e+06 9.86863e+06 9.86867e+06
          9.86862e+06 9.86852e+06 9.86834e+06 9.8681e+06 9.8678e+06 9.86744e+06 9.86703e+06 9.86659e+06 9.86612e+06 9.86564e+06 9.86514e+06 9.86464e+06
          9.86414e+06 9.86364e+06 9.86316e+06 9.86268e+06 9.8622e+06 9.86118e+06 9.86007e+06 9.85896e+06 9.85787e+06 9.85678e+06 9.8557e+06 9.85462e+06
          9.85355e+06 9.85249e+06 9.85142e+06 9.85036e+06 9.84931e+06 9.84825e+06 9.8472e+06 9.84615e+06 9.8399e+06 9.84073e+06 9.84155e+06 9.84238e+06
          9.8432e+06 9.84403e+06 9.84486e+06 9.84569e+06 9.84653e+06 9.84737e+06 9.84821e+06 9.84905e+06 9.8499e+06 9.85075e+06 9.8516e+06 9.85244e+06
          9.85329e+06 9.85412e+06 9.85496e+06 9.85577e+06 9.85657e+06 9.85734e+06 9.85808e+06 9.85877e+06 9.85941e+06 9.85999e+06 9.86049e+06 9.86091e+06
          9.86125e+06 9.86149e+06 9.86165e+06 9.86172e+06 9.8617e+06 9.86162e+06 9.86148e+06 9.86128e+06 9.86101e+06 9.8607e+06 9.86035e+06 9.85996e+06
          9.85954e+06 9.8591e+06 9.85864e+06 9.85818e+06 9.85771e+06 9.85725e+06 9.85678e+06 9.85632e+06 9.85586e+06 9.85486e+06 9.85378e+06 9.85269e+06
          9.85162e+06 9.85054e+06 9.84948e+06 9.84842e+06 9.84736e+06 9.8463e+06 9.84525e+06 9.8442e+06 9.84315e+06 9.8421e+06 9.84106e+06 9.84001e+06
          9.83376e+06 9.83458e+06 9.83539e+06 9.8362e+06 9.83701e+06 9.83783e+06 9.83864e+06 9.83946e+06 9.84028e+06 9.8411e+06 9.84192e+06 9.84274e+06
          9.84357e+06 9.84439e+06 9.84521e+06 9.84602e+06 9.84683e+06 9.84763e+06 9.84842e+06 9.84919e+06 9.84994e+06 9.85067e+06 9.85136e+06 9.852e+06
          9.8526e+06 9.85314e+06 9.85361e+06 9.85401e+06 9.85434e+06 9.85458e+06 9.85475e+06 9.85484e+06 9.85485e+06 9.85479e+06 9.85468e+06 9.85451e+06
          9.85428e+06 9.85401e+06 9.85369e+06 9.85335e+06 9.85297e+06 9.85257e+06 9.85215e+06 9.85172e+06 9.85129e+06 9.85085e+06 9.8504e+06 9.84996e+06
          9.84952e+06 9.84854e+06 9.84748e+06 9.84642e+06 9.84536e+06 9.8443e+06 9.84325e+06 9.8422e+06 9.84116e+06 9.84011e+06 9.83907e+06 9.83803e+06
          9.83699e+06 9.83595e+06 9.83492e+06 9.83388e+06 9.82763e+06 9.82843e+06 9.82923e+06 9.83003e+06 9.83083e+06 9.83163e+06 9.83243e+06 9.83323e+06
          9.83403e+06 9.83483e+06 9.83563e+06 9.83644e+06 9.83723e+06 9.83803e+06 9.83882e+06 9.8396e+06 9.84038e+06 9.84115e+06 9.8419e+06 9.84263e+06
          9.84334e+06 9.84403e+06 9.84468e+06 9.84528e+06 9.84584e+06 9.84635e+06 9.8468e+06 9.84719e+06 9.84751e+06 9.84776e+06 9.84794e+06 9.84805e+06
          9.84807e+06 9.84803e+06 9.84794e+06 9.84779e+06 9.84759e+06 9.84736e+06 9.84708e+06 9.84676e+06 9.84642e+06 9.84606e+06 9.84568e+06 9.84528e+06
          9.84487e+06 9.84445e+06 9.84403e+06 9.8436e+06 9.84317e+06 9.84221e+06 9.84118e+06 9.84014e+06 9.8391e+06 9.83806e+06 9.83703e+06 9.83599e+06
          9.83496e+06 9.83392e+06 9.83289e+06 9.83186e+06 9.83083e+06 9.8298e+06 9.82877e+06 9.82774e+06 9.82149e+06 9.82228e+06 9.82306e+06 9.82385e+06
          9.82464e+06 9.82542e+06 9.82621e+06 9.827e+06 9.82778e+06 9.82856e+06 9.82935e+06 9.83013e+06 9.8309e+06 9.83168e+06 9.83244e+06 9.8332e+06
          9.83395e+06 9.83468e+06 9.8354e+06 9.8361e+06 9.83678e+06 9.83742e+06 9.83804e+06 9.83861e+06 9.83914e+06 9.83963e+06 9.84006e+06 9.84043e+06
          9.84074e+06 9.841e+06 9.84118e+06 9.84131e+06 9.84134e+06 9.84132e+06 9.84124e+06 9.84112e+06 9.84095e+06 9.84074e+06 9.84049e+06 9.84021e+06
          9.8399e+06 9.83957e+06 9.83921e+06 9.83884e+06 9.83846e+06 9.83806e+06 9.83766e+06 9.83724e+06 9.83682e+06 9.83589e+06 9.83488e+06 9.83386e+06
          9.83284e+06 9.83182e+06 9.8308e+06 9.82978e+06 9.82875e+06 9.82773e+06 9.82671e+06 9.82569e+06 9.82467e+06 9.82365e+06 9.82263e+06 9.82161e+06
          9.81535e+06 9.81613e+06 9.8169e+06 9.81768e+06 9.81845e+06 9.81922e+06 9.81999e+06 9.82076e+06 9.82153e+06 9.8223e+06 9.82306e+06 9.82382e+06
          9.82458e+06 9.82533e+06 9.82607e+06 9.8268e+06 9.82752e+06 9.82823e+06 9.82892e+06 9.82959e+06 9.83023e+06 9.83085e+06 9.83144e+06 9.83199e+06
          9.83249e+06 9.83296e+06 9.83337e+06 9.83373e+06 9.83404e+06 9.8343e+06 9.83449e+06 9.83464e+06 9.83467e+06 9.83466e+06 9.8346e+06 9.8345e+06
          9.83435e+06 9.83417e+06 9.83394e+06 9.83369e+06 9.8334e+06 9.8331e+06 9.83277e+06 9.83242e+06 9.83205e+06 9.83168e+06 9.83129e+06 9.83089e+06
          9.83048e+06 9.82957e+06 9.82858e+06 9.82758e+06 9.82658e+06 9.82558e+06 9.82457e+06 9.82356e+06 9.82255e+06 9.82154e+06 9.82053e+06 9.81952e+06
          9.81851e+06 9.8175e+06 9.81648e+06 9.81547e+06 9.80922e+06 9.80998e+06 9.81074e+06 9.8115e+06 9.81226e+06 9.81302e+06 9.81378e+06 9.81453e+06
          9.81529e+06 9.81604e+06 9.81678e+06 9.81752e+06 9.81826e+06 9.81899e+06 9.81971e+06 9.82042e+06 9.82111e+06 9.82179e+06 9.82246e+06 9.8231e+06
          9.82372e+06 9.82431e+06 9.82487e+06 9.8254e+06 9.82589e+06 9.82633e+06 9.82674e+06 9.82709e+06 9.8274e+06 9.82765e+06 9.82786e+06 9.82801e+06
          9.82805e+06 9.82805e+06 9.82801e+06 9.82792e+06 9.82779e+06 9.82763e+06 9.82743e+06 9.82719e+06 9.82693e+06 9.82665e+06 9.82634e+06 9.82601e+06
          9.82566e+06 9.8253e+06 9.82493e+06 9.82455e+06 9.82415e+06 9.82326e+06 9.82229e+06 9.82131e+06 9.82032e+06 9.81933e+06 9.81834e+06 9.81735e+06
          9.81635e+06 9.81535e+06 9.81435e+06 9.81335e+06 9.81235e+06 9.81134e+06 9.81034e+06 9.80934e+06 9.80308e+06 9.80383e+06 9.80458e+06 9.80533e+06
          9.80607e+06 9.80682e+06 9.80756e+06 9.8083e+06 9.80904e+06 9.80978e+06 9.81051e+06 9.81123e+06 9.81195e+06 9.81266e+06 9.81335e+06 9.81404e+06
          9.81472e+06 9.81538e+06 9.81602e+06 9.81664e+06 9.81723e+06 9.8178e+06 9.81834e+06 9.81885e+06 9.81932e+06 9.81976e+06 9.82015e+06 9.8205e+06
          9.8208e+06 9.82106e+06 9.82127e+06 9.82143e+06 9.82148e+06 9.82149e+06 9.82146e+06 9.82138e+06 9.82127e+06 9.82112e+06 9.82094e+06 9.82073e+06
          9.82049e+06 9.82022e+06 9.81993e+06 9.81962e+06 9.81929e+06 9.81895e+06 9.81859e+06 9.81821e+06 9.81783e+06 9.81695e+06 9.816e+06 9.81504e+06
          9.81407e+06 9.8131e+06 9.81212e+06 9.81114e+06 9.81015e+06 9.80916e+06 9.80817e+06 9.80718e+06 9.80618e+06 9.80519e+06 9.8042e+06 9.8032e+06
          9.79694e+06 9.79768e+06 9.79842e+06 9.79915e+06 9.79989e+06 9.80062e+06 9.80135e+06 9.80208e+06 9.8028e+06 9.80352e+06 9.80424e+06 9.80494e+06
          9.80564e+06 9.80633e+06 9.80701e+06 9.80768e+06 9.80834e+06 9.80897e+06 9.8096e+06 9.8102e+06 9.81077e+06 9.81132e+06 9.81185e+06 9.81234e+06
          9.8128e+06 9.81322e+06 9.8136e+06 9.81394e+06 9.81425e+06 9.81451e+06 9.81472e+06 9.8149e+06 9.81495e+06 9.81497e+06 9.81494e+06 9.81488e+06
          9.81478e+06 9.81465e+06 9.81449e+06 9.81429e+06 9.81407e+06 9.81382e+06 9.81354e+06 9.81325e+06 9.81293e+06 9.8126e+06 9.81225e+06 9.81189e+06
          9.81151e+06 9.81066e+06 9.80972e+06 9.80878e+06 9.80782e+06 9.80686e+06 9.8059e+06 9.80493e+06 9.80395e+06 9.80297e+06 9.80199e+06 9.80101e+06
          9.80002e+06 9.79904e+06 9.79805e+06 9.79707e+06 9.7908e+06 9.79153e+06 9.79226e+06 9.79298e+06 9.7937e+06 9.79443e+06 9.79514e+06 9.79586e+06
          9.79657e+06 9.79727e+06 9.79797e+06 9.79866e+06 9.79935e+06 9.80002e+06 9.80068e+06 9.80134e+06 9.80197e+06 9.80259e+06 9.8032e+06 9.80378e+06
          9.80434e+06 9.80487e+06 9.80538e+06 9.80586e+06 9.80631e+06 9.80672e+06 9.8071e+06 9.80744e+06 9.80774e+06 9.808e+06 9.80822e+06 9.8084e+06
          9.80846e+06 9.80848e+06 9.80847e+06 9.80842e+06 9.80833e+06 9.80821e+06 9.80806e+06 9.80788e+06 9.80767e+06 9.80744e+06 9.80718e+06 9.8069e+06
          9.80659e+06 9.80627e+06 9.80594e+06 9.80558e+06 9.80521e+06 9.80437e+06 9.80345e+06 9.80252e+06 9.80158e+06 9.80064e+06 9.79968e+06 9.79872e+06
          9.79776e+06 9.79679e+06 9.79582e+06 9.79484e+06 9.79387e+06 9.79289e+06 9.79191e+06 9.79093e+06 9.78467e+06 9.78538e+06 9.7861e+06 9.78681e+06
          9.78752e+06 9.78823e+06 9.78894e+06 9.78964e+06 9.79034e+06 9.79103e+06 9.79171e+06 9.79239e+06 9.79306e+06 9.79372e+06 9.79437e+06 9.795e+06
          9.79562e+06 9.79623e+06 9.79682e+06 9.79738e+06 9.79793e+06 9.79845e+06 9.79894e+06 9.79941e+06 9.79985e+06 9.80026e+06 9.80063e+06 9.80096e+06
          9.80127e+06 9.80153e+06 9.80176e+06 9.80195e+06 9.80201e+06 9.80204e+06 9.80203e+06 9.80199e+06 9.80191e+06 9.80181e+06 9.80167e+06 9.8015e+06
          9.8013e+06 9.80108e+06 9.80083e+06 9.80056e+06 9.80027e+06 9.79996e+06 9.79963e+06 9.79929e+06 9.79893e+06 9.7981e+06 9.79719e+06 9.79628e+06
          9.79535e+06 9.79441e+06 9.79347e+06 9.79252e+06 9.79157e+06 9.79061e+06 9.78964e+06 9.78868e+06 9.78771e+06 9.78674e+06 9.78577e+06 9.7848e+06
          9.77853e+06 9.77924e+06 9.77994e+06 9.78064e+06 9.78134e+06 9.78204e+06 9.78274e+06 9.78343e+06 9.78411e+06 9.78479e+06 9.78546e+06 9.78613e+06
          9.78678e+06 9.78743e+06 9.78806e+06 9.78868e+06 9.78929e+06 9.78988e+06 9.79046e+06 9.79101e+06 9.79154e+06 9.79205e+06 9.79254e+06 9.79299e+06