<?xml version="1.0"?>
<VTKFile type="UnstructuredGrid" version="0.1" byte_order="LittleEndian">
  <UnstructuredGrid>
    <Piece NumberOfCells="4096" NumberOfPoints="4225">
      <PointData Scalars="S_liq">
        <DataArray type="Float32" Name="S_liq" NumberOfComponents="1" format="ascii">
          1 1 1 1 1 1 1 1 1 1 1 1
          1 1 1 1 1 1 1 1 1 1 1 1
          1 1 1 1 1 1 1 1 1 1 1 1
          1 1 1 1 1 1 1 1 0.983753 1 0.89709 0.903595
          0.827929 0.846997 0.825832 0.843043 0.825699 0.842601 0.825668 0.842435 0.82566 0.842383 0.825671 0.84244
          0.825636 0.842514 0.824081 0.840125 0.800039 0.80983 0.800483 0.810973 0.800792 0.811873 0.800871 0.812206
          0.800908 0.81239 0.800943 0.81256 0.800998 0.812793 0.801258 0.813495 0.804563 0.820054 0.889799 0.890211
          0.992402 1 1 1 1 1 1 1 1 1 1 1
          1 1 1 1 1 1 1 1 1 1 1 1
          1 1 1 1 1 1 1 1 1 1 1 1
          1 1 1 1 1 1 1 1 1 1 1 1
          1 1 1 1 1 1 1 1 1 1 1 1
          1 1 1 1 1 1 1 1 1 0.972664 0.885734 0.879305
          0.87767 0.876885 0.876621 0.876859 0.877619 0.875625 0.835975 0.836675 0.838435 0.83943 0.84018 0.840966
          0.841986 0.843909 0.853536 0.958247 1 1 1 1 1 1 1 1
          1 1 1 1 1 1 1 1 1 1 1 1
          1 1 1 1 1 1 1 1 1 1 1 1
          1 1 1 1 1 1 1 1 1 1 1 1
          1 1 1 0.97112 0.958809 0.954594 0.952462 0.951704 0.952266 0.954332 0.954169 0.893822
          0.898029 0.902501 0.905314 0.907682 0.910282 0.913703 0.919347 0.93958 1 1 1 1
          1 1 1 1 1 1 1 1 1 1 1 1
          1 1 1 1 1 1 1 1 1 1 1 1
          1 1 1 1 1 1 1 1 1 1 1 1
          1 1 1 1 1 1 1 1 1 1 1 1
          1 1 1 1 0.991727 0.995335 0.998137 0.999795 1 1 1 1
          1 1 1 1 1 1 1 1 1 1 1 1
          1 1 1 1 1 1 1 1 1 1 1 1
          1 1 1 1 1 1 1 1 1 1 1 1
          1 1 1 1 1 1 1 1 1 1 1 1
          1 1 1 1 1 1 1 1 1 1 1 1
          1 1 1 1 1 1 1 1 1 1 1 1
          1 1 1 1 1 1 1 1 1 1 1 1
          1 1 1 1 1 1 1 1 1 1 1 1
          1 1 1 1 1 1 1 1 1 1 1 1
          1 1 1 1 1 1 1 1 1 1 1 1
          1 1 1 1 1 1 1 1 1 1 1 1
          1 1 1 1 1 1 1 1 1 1 1 1
          1 1 1 1 1 1 1 1 1 1 1 1
          1 1 1 1 1 1 1 1 1 1 1 1
          1 1 1 1 1 1 1 1 1 1 1 1
          1 1 1 1 1 1 1 1 1 1 1 1
          1 1 1 1 1 1 1 1 1 1 1 1
          1 1 1 1 1 1 1 1 1 1 1 1
          1 1 1 1 1 1 1 1 1 1 1 1
          1 1 1 1 1 1 1 1 1 1 1 1
          1 1 1 1 1 1 1 1 1 1 1 1
          1 1 1 1 1 1 1 1 1 1 1 1
          1 1 1 1 1 1 1 1 1 1 1 1
          1 1 1 1 1 1 1 1 1 1 1 1
          1 1 1 1 1 1 1 1 1 1 1 1
          1 1 1 1 1 1 1 1 1 1 1 1
          1 1 1 1 1 1 1 1 1 1 1 1
          1 1 1 1 1 1 1 1 1 1 1 1
          1 1 1 1 1 1 1 1 1 1 1 1
          1 1 1 1 1 1 1 1 1 1 1 1
          1 1 1 1 1 1 1 1 1 1 1 1
          1 1 1 1 1 1 1 1 1 1 1 1
          1 1 1 1 1 1 1 1 1 1 1 1
          1 1 1 1 1 1 1 1 1 1 1 1
          1 1 1 1 1 1 1 1 1 1 1 1
          1 1 1 1 1 1 1 1 1 1 1 1
          1 1 1 1 1 1 1 1 1 1 1 1
          1 1 1 1 1 1 1 1 1 1 1 1
          1 1 1 1 1 1 1 1 1 1 1 1
          1 1 1 1 1 1 1 1 1 1 1 1
          1 1 1 1 1 1 1 1 1 1 1 1
          1 1 1 1 1 1 1 1 1 1 1 1
          1 1 1 1 1 1 1 1 1 1 1 1
          1 1 1 1 1 1 1 1 1 1 1 1
          1 1 1 1 1 1 1 1 1 1 1 1
          1 1 1 1 1 1 1 1 1 1 1 1
          1 1 1 1 1 1 1 1 1 1 1 1
          1 1 1 1 1 1 1 1 1 1 1 1
          1 1 1 1 1 1 1 1 1 1 1 1
          1 1 1 1 1 1 1 1 1 1 1 1
          1 1 1 1 1 1 1 1 1 1 1 1
          1 1 1 1 1 1 1 1 1 1 1 1
          1 1 1 1 1 1 1 1 1 1 1 1
          1 1 1 1 1 1 1 1 1 1 1 1
          1 1 1 1 1 1 1 1 1 1 1 1
          1 1 1 1 1 1 1 1 1 1 1 1
          1 1 1 1 1 1 1 1 1 1 1 1
          1 1 1 1 1 1 1 1 1 1 1 1
          1 1 1 1 1 1 1 1 1 1 1 1
          1 1 1 1 1 1 1 1 1 1 1 1
          1 1 1 1 1 1 1 1 1 1 1 1
          1 1 1 1 1 1 1 1 1 1 1 1
          1 1 1 1 1 1 1 1 1 1 1 1
          1 1 1 1 1 1 1 1 1 1 1 1
          1 1 1 1 1 1 1 1 1 1 1 1
          1 1 1 1 1 1 1 1 1 1 1 1
          1 1 1 1 1 1 1 1 1 1 1 1
          1 1 1 1 1 1 1 1 1 1 1 1
          1 1 1 1 1 1 1 1 1 1 1 1
          1 1 1 1 1 1 1 1 1 1 1 1
          1 1 1 1 1 1 1 1 1 1 1 1
          1 1 1 1 1 1 1 1 1 1 1 1
          1 1 1 1 1 1 1 1 1 1 1 1
          1 1 1 1 1 1 1 1 1 1 1 1
          1 1 1 1 1 1 1 1 1 1 1 1
          1 1 1 1 1 1 1 1 1 1 1 1
          1 1 1 1 1 1 1 1 1 1 1 1
          1 1 1 1 1 1 1 1 1 1 1 1
          1 1 1 1 1 1 1 1 1 1 1 1
          1 1 1 1 1 1 1 1 1 1 1 1
          1 1 1 1 1 1 1 1 1 1 1 1
          1 1 1 1 1 1 1 1 1 1 1 1
          1 1 1 1 1 1 1 1 1 1 1 1
          1 1 1 1 1 1 1 1 1 1 1 1
          1 1 1 1 1 1 1 1 1 1 1 1
          1 1 1 1 1 1 1 1 1 1 1 1
          1 1 1 1 1 1 1 1 1 1 1 1
          1 1 1 1 1 1 1 1 1 1 1 1
          1 1 1 1 1 1 1 1 1 1 1 1
          1 1 1 1 1 1 1 1 1 1 1 1
          1 1 1 1 1 1 1 1 1 1 1 1
          1 1 1 1 1 1 1 1 1 1 1 1
          1 1 1 1 1 1 1 1 1 1 1 1
          1 1 1 1 1 1 1 1 1 1 1 1
          1 1 1 1 1 1 1 1 1 1 1 1
          1 1 1 1 1 1 1 1 1 1 1 1
          1 1 1 1 1 1 1 1 1 1 1 1
          1 1 1 1 1 1 1 1 1 1 1 1
          1 1 1 1 1 1 1 1 1 1 1 1
          1 1 1 1 1 1 1 1 1 1 1 1
          1 1 1 1 1 1 1 1 1 1 1 1
          1 1 1 1 1 1 1 1 1 1 1 1
          1 1 1 1 1 1 1 1 1 1 1 1
          1 1 1 1 1 1 1 1 1 1 1 1
          1 1 1 1 1 1 1 1 1 1 1 1
          1 1 1 1 1 1 1 1 1 1 1 1
          1 1 1 1 1 1 1 1 1 1 1 1
          1 1 1 1 1 1 1 1 1 1 1 1
          1 1 1 1 1 1 1 1 1 1 1 1
          1 1 1 1 1 1 1 1 1 1 1 1
          1 1 1 1 1 1 1 1 1 1 1 1
          1 1 1 1 1 1 1 1 1 1 1 1
          1 1 1 1 1 1 1 1 1 1 1 1
          1 1 1 1 1 1 1 1 1 1 1 1
          1 1 1 1 1 1 1 1 1 1 1 1
          1 1 1 1 1 1 1 1 1 1 1 1
          1 1 1 1 1 1 1 1 1 1 1 1
          1 1 1 1 1 1 1 1 1 1 1 1
          1 1 1 1 1 1 1 1 1 1 1 1
          1 1 1 1 1 1 1 1 1 1 1 1
          1 1 1 1 1 1 1 1 1 1 1 1
          1 1 1 1 1 1 1 1 1 1 1 1
          1 1 1 1 1 1 1 1 1 1 1 1
          1 1 1 1 1 1 1 1 1 1 1 1
          1 1 1 1 1 1 1 1 1 1 1 1
          1 1 1 1 1 1 1 1 1 1 1 1
          1 1 1 1 1 1 1 1 1 1 1 1
          1 1 1 1 1 1 1 1 1 1 1 1
          1 1 1 1 1 1 1 1 1 1 1 1
          1 1 1 1 1 1 1 1 1 1 1 1
          1 1 1 1 1 1 1 1 1 1 1 1
          1 1 1 1 1 1 1 1 1 1 1 1
          1 1 1 1 1 1 1 1 1 1 1 1
          1 1 1 1 1 1 1 1 1 1 1 1
          1 1 1 1 1 1 1 1 1 1 1 1
          1 1 1 1 1 1 1 1 1 1 1 1
          1 1 1 1 1 1 1 1 1 1 1 1
          1 1 1 1 1 1 1 1 1 1 1 1
          1 1 1 1 1 1 1 1 1 1 1 1
          1 1 1 1 1 1 1 1 1 1 1 1
          1 1 1 1 1 1 1 1 1 1 1 1
          1 1 1 1 1 1 1 1 1 1 1 1
          1 1 1 1 1 1 1 1 1 1 1 1
          1 1 1 1 1 1 1 1 1 1 1 1
          1 1 1 1 1 1 1 1 1 1 1 1
          1 1 1 1 1 1 1 1 1 1 1 1
          1 1 1 1 1 1 1 1 1 1 1 1
          1 1 1 1 1 1 1 1 1 1 1 1
          1 1 1 1 1 1 1 1 1 1 1 1
          1 1 1 1 1 1 1 1 1 1 1 1
          1 1 1 1 1 1 1 1 1 1 1 1
          1 1 1 1 1 1 1 1 1 1 1 1
          1 1 1 1 1 1 1 1 1 1 1 1
          1 1 1 1 1 1 1 1 1 1 1 1
          1 1 1 1 1 1 1 1 1 1 1 1
          1 1 1 1 1 1 1 1 1 1 1 1
          1 1 1 1 1 1 1 1 1 1 1 1
          1 1 1 1 1 1 1 1 1 1 1 1
          1 1 1 1 1 1 1 1 1 1 1 1
          1 1 1 1 1 1 1 1 1 1 1 1
          1 1 1 1 1 1 1 1 1 1 1 1
          1 1 1 1 1 1 1 1 1 1 1 1
          1 1 1 1 1 1 1 1 1 1 1 1
          1 1 1 1 1 1 1 1 1 1 1 1
          1 1 1 1 1 1 1 1 1 1 1 1
          1 1 1 1 1 1 1 1 1 1 1 1
          1 1 1 1 1 1 1 1 1 1 1 1
          1 1 1 1 1 1 1 1 1 1 1 1
          1 1 1 1 1 1 1 1 1 1 1 1
          1 1 1 1 1 1 1 1 1 1 1 1
          1 1 1 1 1 1 1 1 1 1 1 1
          1 1 1 1 1 1 1 1 1 1 1 1
          1 1 1 1 1 1 1 1 1 1 1 1
          1 1 1 1 1 1 1 1 1 1 1 1
          1 1 1 1 1 1 1 1 1 1 1 1
          1 1 1 1 1 1 1 1 1 1 1 1
          1 1 1 1 1 1 1 1 1 1 1 1
          1 1 1 1 1 1 1 1 1 1 1 1
          1 1 1 1 1 1 1 1 1 1 1 1
          1 1 1 1 1 1 1 1 1 1 1 1
          1 1 1 1 1 1 1 1 1 1 1 1
          1 1 1 1 1 1 1 1 1 1 1 1
          1 1 1 1 1 1 1 1 1 1 1 1
          1 1 1 1 1 1 1 1 1 1 1 1
          1 1 1 1 1 1 1 1 1 1 1 1
          1 1 1 1 1 1 1 1 1 1 1 1
          1 1 1 1 1 1 1 1 1 1 1 1
          1 1 1 1 1 1 1 1 1 1 1 1
          1 1 1 1 1 1 1 1 1 1 1 1
          1 1 1 1 1 1 1 1 1 1 1 1
          1 1 1 1 1 1 1 1 1 1 1 1
          1 1 1 1 1 1 1 1 1 1 1 1
          1 1 1 1 1 1 1 1 1 1 1 1
          1 1 1 1 1 1 1 1 1 1 1 1
          1 1 1 1 1 1 1 1 1 1 1 1
          1 1 1 1 1 1 1 1 1 1 1 1
          1 1 1 1 1 1 1 1 1 1 1 1
          1 1 1 1 1 1 1 1 1 1 1 1
          1 1 1 1 1 1 1 1 1 1 1 1
          1 1 1 1 1 1 1 1 1 1 1 1
          1 1 1 1 1 1 1 1 1 1 1 1
          1 1 1 1 1 1 1 1 1 1 1 1
          1 1 1 1 1 1 1 1 1 1 1 1
          1 1 1 1 1 1 1 1 1 1 1 1
          1 1 1 1 1 1 1 1 1 1 1 1
          1 1 1 1 1 1 1 1 1 1 1 1
          1 1 1 1 1 1 1 1 1 1 1 1
          1 1 1 1 1 1 1 1 1 1 1 1
          1 1 1 1 1 1 1 1 1 1 1 1
          1 1 1 1 1 1 1 1 1 1 1 1
          1 1 1 1 1 1 1 1 1 1 1 1
          1 1 1 1 1 1 1 1 1 1 1 1
          1 1 1 1 1 1 1 1 1 1 1 1
          1 1 1 1 1 1 1 1 1 1 1 1
          1 1 1 1 1 1 1 1 1 1 1 1
          1 1 1 1 1 1 1 1 1 1 1 1
          1 1 1 1 1 1 1 1 1 1 1 1
          1 1 1 1 1 1 1 1 1 1 1 1
          1 1 1 1 1 1 1 1 1 1 1 1
          1 1 1 1 1 1 1 1 1 1 1 1
          1 1 1 1 1 1 1 1 1 1 1 1
          1 1 1 1 1 1 1 1 1 1 1 1
          1 1 1 1 1 1 1 1 1 1 1 1
          1 1 1 1 1 1 1 1 1 1 1 1
          1 1 1 1 1 1 1 1 1 1 1 1
          1 1 1 1 1 1 1 1 1 1 1 1
          1 1 1 1 1 1 1 1 1 1 1 1
          1 1 1 1 1 1 1 1 1 1 1 1
          1 1 1 1 1 1 1 1 1 1 1 1
          1 1 1 1 1 1 1 1 1 1 1 1
          1 1 1 1 1 1 1 1 1 1 1 1
          1 1 1 1 1 1 1 1 1 1 1 1
          1 1 1 1 1 1 1 1 1 1 1 1
          1 1 1 1 1 1 1 1 1 1 1 1
          1 1 1 1 1 1 1 1 1 1 1 1
          1 1 1 1 1 1 1 1 1 1 1 1
          1 1 1 1 1 1 1 1 1 1 1 1
          1 1 1 1 1 1 1 1 1 1 1 1
          1 1 1 1 1 1 1 1 1 1 1 1
          1 1 1 1 1 1 1 1 1 1 1 1
          1 1 1 1 1 1 1 1 1 1 1 1
          1 1 1 1 1 1 1 1 1 1 1 1
          1 1 1 1 1 1 1 1 1 1 1 1
          1 1 1 1 1 1 1 1 1 1 1 1
          1 1 1 1 1 1 1 1 1 1 1 1
          1 1 1 1 1 1 1 1 1 1 1 1
          1 1 1 1 1 1 1 1 1 1 1 1
          1 1 1 1 1 1 1 1 1 1 1 1
          1 1 1 1 1 1 1 1 1 1 1 1
          1 1 1 1 1 1 1 1 1 1 1 1
          1 1 1 1 1 1 1 1 1 1 1 1
          1 1 1 1 1 1 1 1 1 1 1 1
          1 1 1 1 1 1 1 1 1 1 1 1
          1 1 1 1 1 1 1 1 1 1 1 1
          1 1 1 1 1 1 1 1 1 1 1 1
          1 1 1 1 1 1 1 1 1 1 1 1
          1 1 1 1 1 1 1 1 1 1 1 1
          1 1 1 1 1 1 1 1 1 1 1 1
          1 1 1 1 1 1 1 1 1 1 1 1
          1 1 1 1 1 1 1 1 1 1 1 1
          1 1 1 1 1 1 1 1 1 1 1 1
          1 1 1 1 1 1 1 1 1 1 1 1
          1 1 1 1 1 1 1 1 1 1 1 1
          1 1 1 1 1 1 1 1 1 1 1 1
          1 1 1 1 1 1 1 1 1 1 1 1
          1 1 1 1 1 1 1 1 1 1 1 1
          1 1 1 1 1 1 1 1 1 1 1 1
          1 1 1 1 1 1 1 1 1 1 1 1
          1 1 1 1 1 1 1 1 1 1 1 1
          1 1 1 1 1 1 1 1 1 1 1 1
          1 1 1 1 1 1 1 1 1 1 1 1
          1 1 1 1 1 1 1 1 1 1 1 1
          1 1 1 1 1 1 1 1 1 1 1 1
          1 1 1 1 1 1 1 1 1 1 1 1
          1 1 1 1 1 1 1 1 1 1 1 1
          1 1 1 1 1 1 1 1 1 1 1 1
          1 1 1 1 1 1 1 1 1 1 1 1
          1 1 1 1 1 1 1 1 1 1 1 1
          1 1 1 1 1 1 1 1 1 1 1 1
          1 1 1 1 1 1 1 1 1 1 1 1
          1 1 1 1 1 1 1 1 1 1 1 1
          1 1 1 1 1 1 1 1 1 1 1 1
          1 1 1 1 1 1 1 1 1 1 1 1
          1 1 1 1 1 1 1 1 1 1 1 1
          1 1 1 1 1 1 1 1 1 1 1 1
          1 1 1 1 1 1 1 1 1 1 1 1
          1 1 1 1 1 1 1 1 1 1 1 1
          1 1 1 1 1 1 1 1 1 1 1 1
          1 1 1 1 1 1 1 1 1 1 1 1
          1 1 1 1 1 1 1 1 1 1 1 1
          1 1 1 1 1 1 1 1 1 1 1 1
          1 1 1 1 1 1 1 1 1 1 1 1
          1 1 1 1 1 1 1 1 1 1 1 1
          1 1 1 1 1 1 1 1 1 1 1 1
          1 1 1 1 1 1 1 1 1 1 1 1
          1 1 1 1 1 1 1 1 1 1 1 1
          1 1 1 1 1 1 1 1 1 1 1 1
          1 1 1 1 1 1 1 1 1 1 1 1
          1 1 1 1 1 1 1 1 1 1 1 1
          1 1 1 1 1 1 1 1 1 1 1 1
          1 1 1 1 1 1 1 1 1 1 1 1
          1 1 1 1 1 1 1 1 1 1 1 1
          1 1 1 1 1 1 1 1 1 1 1 1
          1 1 1 1 1 1 1 1 1 1 1 1
          1 1 1 1 1 1 1 1 1 1 1 1
          1 1 1 1 1 1 1 1 1 1 1 1
          1 1 1 1 1 1 1 1 1 1 1 1
          1 1 1 1 1 1 1 1 1 1 1 1
          1 1 1 1 1 1 1 1 1 1 1 1
          1 1 1 1 1 1 1 1 1 1 1 1
          1 1 1 1 1 1 1 1 1 1 1 1
          1 1 1 1 1 1 1 1 1 1 1 1
          1 1 1 1 1 1 1 1 1 1 1 1
          1 1 1 1 1 1 1 1 1 1 1 1
          1 1 1 1 1 1 1 1 1 1 1 1
          1 1 1 1 1 1 1 1 1 1 1 1
          1 1 1 1 1 1 1 1 1 1 1 1
          1 1 1 1 1 1 1 1 1 1 1 1
          1 1 1 1 1 1 1 1 1 1 1 1
          1 1 1 1 1 1 1 1 1 1 1 1
          1 1 1 1 1 1 1 1 1 1 1 1
          1 1 1 1 1 1 1 1 1 1 1 1
          1 1 1 1 1 1 1 1 1 1 1 1
          1 1 1 1 1 1 1 1 1 1 1 1
          1 1 1 1 1 1 1 1 1 1 1 1
          1 1 1 1 1 1 1 1 1 1 1 1
          1 1 1 1 1 1 1 1 1 1 1 1
          1
        </DataArray>
        <DataArray type="Float32" Name="p_liq" NumberOfComponents="1" format="ascii">
          9.91e+06 9.9109e+06 9.90387e+06 9.90478e+06 9.91181e+06 9.9057e+06 9.91274e+06 9.90662e+06 9.91367e+06 9.90756e+06 9.91462e+06 9.9085e+06
          9.91558e+06 9.90946e+06 9.91655e+06 9.91043e+06 9.91754e+06 9.91142e+06 9.91854e+06 9.91242e+06 9.91957e+06 9.91345e+06 9.92062e+06 9.9145e+06
          9.9217e+06 9.91558e+06 9.92282e+06 9.91669e+06 9.92397e+06 9.91784e+06 9.92516e+06 9.91903e+06 9.92641e+06 9.92027e+06 9.92772e+06 9.92158e+06
          9.92911e+06 9.92296e+06 9.93058e+06 9.92442e+06 9.93216e+06 9.92599e+06 9.93382e+06 9.92769e+06 9.9358e+06 9.92946e+06 9.93831e+06 9.93257e+06
          9.94117e+06 9.9352e+06 9.94338e+06 9.93743e+06 9.94505e+06 9.93908e+06 9.94619e+06 9.94021e+06 9.94682e+06 9.94083e+06 9.94696e+06 9.94098e+06
          9.94659e+06 9.94063e+06 9.94566e+06 9.93974e+06 9.94416e+06 9.93824e+06 9.9433e+06 9.9374e+06 9.94246e+06 9.93657e+06 9.94156e+06 9.93569e+06
          9.94058e+06 9.93473e+06 9.93949e+06 9.93365e+06 9.93824e+06 9.93242e+06 9.93678e+06 9.93098e+06 9.93511e+06 9.9293e+06 9.93317e+06 9.9275e+06
          9.93171e+06 9.92575e+06 9.93073e+06 9.92484e+06 9.92987e+06 9.92396e+06 9.92908e+06 9.92317e+06 9.92837e+06 9.92245e+06 9.92774e+06 9.92182e+06
          9.92721e+06 9.92126e+06 9.9268e+06 9.92076e+06 9.92579e+06 9.91969e+06 9.92463e+06 9.91853e+06 9.92347e+06 9.91736e+06 9.9223e+06 9.91619e+06
          9.92114e+06 9.91503e+06 9.91999e+06 9.91388e+06 9.91885e+06 9.91274e+06 9.91772e+06 9.9116e+06 9.91659e+06 9.91048e+06 9.91547e+06 9.90936e+06
          9.91436e+06 9.90825e+06 9.91326e+06 9.90714e+06 9.91216e+06 9.90604e+06 9.91107e+06 9.90495e+06 9.91e+06 9.90387e+06 9.89774e+06 9.89865e+06
          9.89957e+06 9.9005e+06 9.90143e+06 9.90238e+06 9.90333e+06 9.9043e+06 9.90528e+06 9.90628e+06 9.9073e+06 9.90835e+06 9.90942e+06 9.91052e+06
          9.91166e+06 9.91284e+06 9.91407e+06 9.91536e+06 9.91672e+06 9.91816e+06 9.91971e+06 9.92139e+06 9.9233e+06 9.92594e+06 9.92893e+06 9.93112e+06
          9.93271e+06 9.93378e+06 9.93439e+06 9.93455e+06 9.93426e+06 9.93347e+06 9.93191e+06 9.93112e+06 9.93033e+06 9.9295e+06 9.92858e+06 9.92756e+06
          9.92639e+06 9.92502e+06 9.92337e+06 9.92141e+06 9.91988e+06 9.91886e+06 9.91797e+06 9.91718e+06 9.91646e+06 9.91582e+06 9.91524e+06 9.91471e+06
          9.91361e+06 9.91242e+06 9.91124e+06 9.91007e+06 9.9089e+06 9.90775e+06 9.90661e+06 9.90548e+06 9.90435e+06 9.90324e+06 9.90213e+06 9.90102e+06
          9.89992e+06 9.89883e+06 9.89774e+06 9.89161e+06 9.89252e+06 9.89344e+06 9.89437e+06 9.8953e+06 9.89624e+06 9.89719e+06 9.89815e+06 9.89913e+06
          9.90012e+06 9.90114e+06 9.90217e+06 9.90323e+06 9.90432e+06 9.90544e+06 9.9066e+06 9.90781e+06 9.90907e+06 9.9104e+06 9.9118e+06 9.91329e+06
          9.91492e+06 9.91674e+06 9.91872e+06 9.92135e+06 9.92342e+06 9.9249e+06 9.92592e+06 9.9265e+06 9.92667e+06 9.92643e+06 9.92578e+06 9.92468e+06
          9.92397e+06 9.92323e+06 9.92244e+06 9.9216e+06 9.92066e+06 9.91959e+06 9.91834e+06 9.9168e+06 9.91494e+06 9.9138e+06 9.91278e+06 9.91189e+06
          9.9111e+06 9.91039e+06 9.90975e+06 9.90916e+06 9.90863e+06 9.9075e+06 9.9063e+06 9.90511e+06 9.90393e+06 9.90277e+06 9.90162e+06 9.90048e+06
          9.89935e+06 9.89822e+06 9.89711e+06 9.896e+06 9.8949e+06 9.8938e+06 9.8927e+06 9.89161e+06 9.88548e+06 9.88639e+06 9.88731e+06 9.88823e+06
          9.88915e+06 9.89009e+06 9.89103e+06 9.89199e+06 9.89296e+06 9.89394e+06 9.89494e+06 9.89597e+06 9.89701e+06 9.89808e+06 9.89918e+06 9.90032e+06
          9.9015e+06 9.90272e+06 9.904e+06 9.90534e+06 9.90675e+06 9.90826e+06 9.90988e+06 9.9116e+06 9.91328e+06 9.91478e+06 9.91598e+06 9.91684e+06
          9.91737e+06 9.91757e+06 9.91744e+06 9.91696e+06 9.91619e+06 9.91561e+06 9.91494e+06 9.91423e+06 9.91348e+06 9.91267e+06 9.91177e+06 9.91077e+06
          9.90968e+06 9.90858e+06 9.90751e+06 9.90657e+06 9.90572e+06 9.90496e+06 9.90426e+06 9.90362e+06 9.90304e+06 9.9025e+06 9.90137e+06 9.90016e+06
          9.89896e+06 9.89779e+06 9.89663e+06 9.89548e+06 9.89434e+06 9.89321e+06 9.89209e+06 9.89098e+06 9.88987e+06 9.88876e+06 9.88766e+06 9.88657e+06
          9.88548e+06 9.87934e+06 9.88025e+06 9.88117e+06 9.88208e+06 9.883e+06 9.88393e+06 9.88487e+06 9.88581e+06 9.88677e+06 9.88774e+06 9.88873e+06
          9.88974e+06 9.89076e+06 9.89182e+06 9.89289e+06 9.894e+06 9.89514e+06 9.89631e+06 9.89753e+06 9.8988e+06 9.90012e+06 9.9015e+06 9.90292e+06
          9.90436e+06 9.90573e+06 9.90697e+06 9.90798e+06 9.90875e+06 9.90923e+06 9.90944e+06 9.90938e+06 9.90904e+06 9.90845e+06 9.90806e+06 9.90755e+06
          9.90696e+06 9.9063e+06 9.90557e+06 9.90476e+06 9.90389e+06 9.90297e+06 9.90203e+06 9.90112e+06 9.90026e+06 9.89947e+06 9.89874e+06 9.89807e+06
          9.89744e+06 9.89687e+06 9.89633e+06 9.89521e+06 9.894e+06 9.8928e+06 9.89163e+06 9.89047e+06 9.88932e+06 9.88819e+06 9.88706e+06 9.88595e+06
          9.88484e+06 9.88373e+06 9.88263e+06 9.88153e+06 9.88044e+06 9.87934e+06 9.87321e+06 9.87412e+06 9.87502e+06 9.87593e+06 9.87684e+06 9.87776e+06
          9.87869e+06 9.87963e+06 9.88057e+06 9.88153e+06 9.8825e+06 9.88349e+06 9.8845e+06 9.88552e+06 9.88657e+06 9.88764e+06 9.88874e+06 9.88986e+06
          9.89102e+06 9.89221e+06 9.89344e+06 9.89468e+06 9.89594e+06 9.89717e+06 9.89834e+06 9.89938e+06 9.90025e+06 9.90092e+06 9.90137e+06 9.90159e+06
          9.90159e+06 9.90137e+06 9.90096e+06 9.90066e+06 9.90025e+06 9.89976e+06 9.89918e+06 9.89854e+06 9.89783e+06 9.89707e+06 9.89627e+06 9.89546e+06
          9.89465e+06 9.89388e+06 9.89315e+06 9.89246e+06 9.89182e+06 9.89122e+06 9.89066e+06 9.89013e+06 9.88901e+06 9.88781e+06 9.88662e+06 9.88546e+06
          9.8843e+06 9.88316e+06 9.88203e+06 9.88091e+06 9.8798e+06 9.87869e+06 9.87759e+06 9.87649e+06 9.8754e+06 9.8743e+06 9.87321e+06 9.86708e+06
          9.86798e+06 9.86888e+06 9.86978e+06 9.87068e+06 9.87159e+06 9.8725e+06 9.87343e+06 9.87436e+06 9.8753e+06 9.87626e+06 9.87723e+06 9.87821e+06
          9.87921e+06 9.88022e+06 9.88126e+06 9.88231e+06 9.88339e+06 9.88448e+06 9.88559e+06 9.88672e+06 9.88785e+06 9.88897e+06 9.89005e+06 9.89106e+06
          9.89196e+06 9.89272e+06 9.89332e+06 9.89374e+06 9.89397e+06 9.89402e+06 9.89389e+06 9.89361e+06 9.89338e+06 9.89305e+06 9.89263e+06 9.89213e+06
          9.89157e+06 9.89095e+06 9.89028e+06 9.88958e+06 9.88887e+06 9.88816e+06 9.88746e+06 9.88679e+06 9.88615e+06 9.88554e+06 9.88496e+06 9.88441e+06
          9.88389e+06 9.88279e+06 9.8816e+06 9.88042e+06 9.87926e+06 9.87812e+06 9.87699e+06 9.87586e+06 9.87475e+06 9.87364e+06 9.87254e+06 9.87144e+06
          9.87035e+06 9.86926e+06 9.86817e+06 9.86708e+06 9.86095e+06 9.86184e+06 9.86272e+06 9.86362e+06 9.86451e+06 9.86541e+06 9.86631e+06 9.86722e+06
          9.86814e+06 9.86906e+06 9.87e+06 9.87095e+06 9.8719e+06 9.87287e+06 9.87386e+06 9.87485e+06 9.87586e+06 9.87689e+06 9.87792e+06 9.87896e+06
          9.88e+06 9.88103e+06 9.88204e+06 9.883e+06 9.88389e+06 9.88468e+06 9.88536e+06 9.88591e+06 9.8863e+06 9.88654e+06 9.88662e+06 9.88656e+06
          9.88638e+06 9.8862e+06 9.88593e+06 9.88557e+06 9.88515e+06 9.88466e+06 9.88412e+06 9.88353e+06 9.88292e+06 9.88228e+06 9.88165e+06 9.88101e+06
          9.8804e+06 9.8798e+06 9.87922e+06 9.87867e+06 9.87814e+06 9.87763e+06 9.87654e+06 9.87537e+06 9.87421e+06 9.87306e+06 9.87193e+06 9.8708e+06
          9.86969e+06 9.86858e+06 9.86748e+06 9.86638e+06 9.86529e+06 9.8642e+06 9.86312e+06 9.86203e+06 9.86095e+06 9.85482e+06 9.8557e+06 9.85657e+06
          9.85745e+06 9.85834e+06 9.85922e+06 9.86011e+06 9.86101e+06 9.86191e+06 9.86282e+06 9.86373e+06 9.86466e+06 9.86559e+06 9.86653e+06 9.86748e+06
          9.86844e+06 9.8694e+06 9.87037e+06 9.87135e+06 9.87232e+06 9.87328e+06 9.87423e+06 9.87514e+06 9.87601e+06 9.87681e+06 9.87753e+06 9.87814e+06
          9.87864e+06 9.87902e+06 9.87926e+06 9.87938e+06 9.87937e+06 9.87925e+06 9.87911e+06 9.87889e+06 9.87859e+06 9.87823e+06 9.8778e+06 9.87733e+06
          9.87681e+06 9.87627e+06 9.8757e+06 9.87513e+06 9.87455e+06 9.87398e+06 9.87342e+06 9.87288e+06 9.87235e+06 9.87184e+06 9.87134e+06 9.87028e+06
          9.86912e+06 9.86798e+06 9.86685e+06 9.86572e+06 9.86461e+06 9.8635e+06 9.86241e+06 9.86131e+06 9.86022e+06 9.85914e+06 9.85806e+06 9.85698e+06
          9.8559e+06 9.85482e+06 9.84869e+06 9.84955e+06 9.85042e+06 9.85129e+06 9.85216e+06 9.85303e+06 9.85391e+06 9.85479e+06 9.85567e+06 9.85656e+06
          9.85746e+06 9.85836e+06 9.85926e+06 9.86017e+06 9.86109e+06 9.86201e+06 9.86294e+06 9.86386e+06 9.86478e+06 9.86569e+06 9.86659e+06 9.86746e+06
          9.8683e+06 9.86909e+06 9.86982e+06 9.87047e+06 9.87104e+06 9.8715e+06 9.87186e+06 9.87211e+06 9.87225e+06 9.87228e+06 9.87222e+06 9.87211e+06
          9.87193e+06 9.87168e+06 9.87136e+06 9.871e+06 9.87058e+06 9.87012e+06 9.86964e+06 9.86913e+06 9.86861e+06 9.86808e+06 9.86756e+06 9.86704e+06
          9.86652e+06 9.86602e+06 9.86552e+06 9.86504e+06 9.86399e+06 9.86286e+06 9.86174e+06 9.86062e+06 9.85951e+06 9.85841e+06 9.85732e+06 9.85622e+06
          9.85514e+06 9.85406e+06 9.85298e+06 9.85191e+06 9.85083e+06 9.84976e+06 9.84869e+06 9.84256e+06 9.84341e+06 9.84426e+06 9.84512e+06 9.84598e+06
          9.84684e+06 9.8477e+06 9.84856e+06 9.84943e+06 9.8503e+06 9.85117e+06 9.85205e+06 9.85293e+06 9.85381e+06 9.8547e+06 9.85558e+06 9.85647e+06
          9.85735e+06 9.85822e+06 9.85908e+06 9.85992e+06 9.86073e+06 9.8615e+06 9.86223e+06 9.8629e+06 9.86351e+06 9.86403e+06 9.86447e+06 9.86482e+06
          9.86507e+06 9.86523e+06 9.86529e+06 9.86527e+06 9.86519e+06 9.86504e+06 9.86483e+06 9.86456e+06 9.86424e+06 9.86387e+06 9.86346e+06 9.86303e+06
          9.86257e+06 9.8621e+06 9.86162e+06 9.86113e+06 9.86064e+06 9.86015e+06 9.85967e+06 9.85919e+06 9.85872e+06 9.8577e+06 9.85659e+06 9.85548e+06
          9.85438e+06 9.85329e+06 9.8522e+06 9.85112e+06 9.85004e+06 9.84896e+06 9.84789e+06 9.84682e+06 9.84575e+06 9.84469e+06 9.84362e+06 9.84256e+06
          9.83642e+06 9.83727e+06 9.83811e+06 9.83895e+06 9.83979e+06 9.84064e+06 9.84148e+06 9.84233e+06 9.84318e+06 9.84403e+06 9.84489e+06 9.84574e+06
          9.8466e+06 9.84745e+06 9.84831e+06 9.84916e+06 9.85e+06 9.85084e+06 9.85167e+06 9.85248e+06 9.85327e+06 9.85403e+06 9.85475e+06 9.85543e+06
          9.85606e+06 9.85662e+06 9.85712e+06 9.85753e+06 9.85787e+06 9.85812e+06 9.8583e+06 9.85839e+06 9.85839e+06 9.85833e+06 9.85821e+06 9.85803e+06
          9.8578e+06 9.85752e+06 9.8572e+06 9.85684e+06 9.85645e+06 9.85603e+06 9.8556e+06 9.85515e+06 9.8547e+06 9.85424e+06 9.85378e+06 9.85332e+06
          9.85286e+06 9.8524e+06 9.8514e+06 9.85031e+06 9.84923e+06 9.84814e+06 9.84707e+06 9.84599e+06 9.84492e+06 9.84385e+06 9.84279e+06 9.84172e+06
          9.84066e+06 9.8396e+06 9.83854e+06 9.83748e+06 9.83642e+06 9.83029e+06 9.83112e+06 9.83195e+06 9.83278e+06 9.83361e+06 9.83444e+06 9.83527e+06
          9.8361e+06 9.83693e+06 9.83776e+06 9.8386e+06 9.83943e+06 9.84026e+06 9.84109e+06 9.84192e+06 9.84274e+06 9.84355e+06 9.84435e+06 9.84514e+06
          9.84591e+06 9.84665e+06 9.84737e+06 9.84805e+06 9.84869e+06 9.84927e+06 9.8498e+06 9.85027e+06 9.85067e+06 9.851e+06 9.85126e+06 9.85145e+06
          9.85156e+06 9.85158e+06 9.85154e+06 9.85144e+06 9.85129e+06 9.85109e+06 9.85085e+06 9.85056e+06 9.85024e+06 9.84989e+06 9.84951e+06 9.84911e+06
          9.8487e+06 9.84827e+06 9.84784e+06 9.8474e+06 9.84696e+06 9.84652e+06 9.84608e+06 9.8451e+06 9.84403e+06 9.84296e+06 9.8419e+06 9.84084e+06
          9.83978e+06 9.83872e+06 9.83766e+06 9.8366e+06 9.83555e+06 9.8345e+06 9.83345e+06 9.8324e+06 9.83134e+06 9.83029e+06 9.82416e+06 9.82498e+06
          9.82579e+06 9.82661e+06 9.82742e+06 9.82824e+06 9.82905e+06 9.82987e+06 9.83068e+06 9.8315e+06 9.83231e+06 9.83312e+06 9.83393e+06 9.83473e+06
          9.83553e+06 9.83632e+06 9.8371e+06 9.83787e+06 9.83862e+06 9.83936e+06 9.84006e+06 9.84074e+06 9.84138e+06 9.84199e+06 9.84254e+06 9.84305e+06
          9.8435e+06 9.84389e+06 9.84421e+06 9.84447e+06 9.84467e+06 9.8448e+06 9.84483e+06 9.84481e+06 9.84473e+06 9.8446e+06 9.84443e+06 9.84422e+06
          9.84396e+06 9.84367e+06 9.84335e+06 9.843e+06 9.84264e+06 9.84225e+06 9.84186e+06 9.84145e+06 9.84103e+06 9.84061e+06 9.84018e+06 9.83975e+06
          9.83879e+06 9.83775e+06 9.8367e+06 9.83565e+06 9.83461e+06 9.83356e+06 9.83251e+06 9.83147e+06 9.83042e+06 9.82938e+06 9.82833e+06 9.82729e+06
          9.82625e+06 9.8252e+06 9.82416e+06 9.81803e+06 9.81883e+06 9.81964e+06 9.82044e+06 9.82124e+06 9.82204e+06 9.82284e+06 9.82364e+06 9.82444e+06
          9.82523e+06 9.82602e+06 9.82682e+06 9.8276e+06 9.82838e+06 9.82915e+06 9.82992e+06 9.83067e+06 9.83141e+06 9.83213e+06 9.83283e+06 9.8335e+06
          9.83415e+06 9.83476e+06 9.83534e+06 9.83587e+06 9.83635e+06 9.83678e+06 9.83716e+06 9.83748e+06 9.83775e+06 9.83795e+06 9.8381e+06 9.83814e+06
          9.83813e+06 9.83807e+06 9.83796e+06 9.83781e+06 9.83762e+06 9.83739e+06 9.83713e+06 9.83684e+06 9.83652e+06 9.83618e+06 9.83582e+06 9.83545e+06
          9.83506e+06 9.83466e+06 9.83426e+06 9.83384e+06 9.83342e+06 9.83248e+06 9.83146e+06 9.83044e+06 9.82941e+06 9.82837e+06 9.82734e+06 9.82631e+06
          9.82527e+06 9.82424e+06 9.8232e+06 9.82217e+06 9.82114e+06 9.8201e+06 9.81907e+06 9.81803e+06 9.8119e+06 9.81269e+06 9.81348e+06 9.81427e+06
          9.81505e+06 9.81584e+06 9.81662e+06 9.81741e+06 9.81819e+06 9.81897e+06 9.81974e+06 9.82051e+06 9.82128e+06 9.82204e+06 9.82278e+06 9.82352e+06
          9.82425e+06 9.82496e+06 9.82565e+06 9.82632e+06 9.82697e+06 9.82759e+06 9.82818e+06 9.82873e+06 9.82924e+06 9.8297e+06 9.83012e+06 9.83049e+06
          9.83081e+06 9.83108e+06 9.83129e+06 9.83145e+06 9.8315e+06 9.8315e+06 9.83145e+06 9.83136e+06 9.83124e+06 9.83106e+06 9.83086e+06 9.83062e+06
          9.83036e+06 9.83006e+06 9.82975e+06 9.82941e+06 9.82906e+06 9.82869e+06 9.82831e+06 9.82792e+06 9.82752e+06 9.8271e+06 9.82618e+06 9.82518e+06
          9.82417e+06 9.82316e+06 9.82214e+06 9.82112e+06 9.8201e+06 9.81908e+06 9.81806e+06 9.81703e+06 9.81601e+06 9.81498e+06 9.81395e+06 9.81293e+06
          9.8119e+06 9.80577e+06 9.80654e+06 9.80732e+06 9.8081e+06 9.80887e+06 9.80964e+06 9.81041e+06 9.81118e+06 9.81195e+06 9.81271e+06 9.81346e+06
          9.81422e+06 9.81496e+06 9.8157e+06 9.81643e+06 9.81714e+06 9.81784e+06 9.81853e+06 9.8192e+06 9.81985e+06 9.82047e+06 9.82106e+06 9.82163e+06
          9.82216e+06 9.82265e+06 9.8231e+06 9.82351e+06 9.82388e+06 9.82419e+06 9.82446e+06 9.82468e+06 9.82485e+06 9.8249e+06 9.82492e+06 9.82488e+06
          9.82481e+06 9.8247e+06 9.82454e+06 9.82436e+06 9.82414e+06 9.8239e+06 9.82363e+06 9.82333e+06 9.82301e+06 9.82268e+06 9.82233e+06 9.82196e+06
          9.82158e+06 9.82119e+06 9.82079e+06 9.81989e+06 9.81891e+06 9.81792e+06 9.81692e+06 9.81592e+06 9.81491e+06 9.8139e+06 9.81289e+06 9.81187e+06
          9.81086e+06 9.80984e+06 9.80882e+06 9.80781e+06 9.80679e+06 9.80577e+06 9.79964e+06 9.8004e+06 9.80116e+06 9.80193e+06 9.80269e+06 9.80344e+06
          9.8042e+06 9.80496e+06 9.80571e+06 9.80645e+06 9.80719e+06 9.80793e+06 9.80865e+06 9.80937e+06 9.81008e+06 9.81077e+06 9.81146e+06 9.81212e+06
          9.81277e+06 9.81339e+06 9.814e+06 9.81457e+06 9.81512e+06 9.81563e+06 9.8161e+06 9.81654e+06 9.81694e+06 9.8173e+06 9.81762e+06 9.81789e+06
          9.81812e+06 9.8183e+06 9.81836e+06 9.81838e+06 9.81835e+06 9.81829e+06 9.81819e+06 9.81806e+06 9.81789e+06 9.81769e+06 9.81747e+06 9.81721e+06
          9.81694e+06 9.81664e+06 9.81632e+06 9.81598e+06 9.81563e+06 9.81526e+06 9.81488e+06 9.81449e+06 9.8136e+06 9.81264e+06 9.81166e+06 9.81068e+06
          9.80969e+06 9.8087e+06 9.8077e+06 9.8067e+06 9.80569e+06 9.80469e+06 9.80368e+06 9.80267e+06 9.80166e+06 9.80065e+06 9.79964e+06 9.79351e+06
          9.79426e+06 9.79501e+06 9.79576e+06 9.7965e+06 9.79725e+06 9.79799e+06 9.79873e+06 9.79947e+06 9.8002e+06 9.80092e+06 9.80164e+06 9.80235e+06
          9.80305e+06 9.80374e+06 9.80442e+06 9.80508e+06 9.80573e+06 9.80636e+06 9.80696e+06 9.80755e+06 9.8081e+06 9.80863e+06 9.80913e+06 9.8096e+06
          9.81003e+06 9.81042e+06 9.81078e+06 9.81109e+06 9.81136e+06 9.8116e+06 9.81179e+06 9.81185e+06 9.81188e+06 9.81186e+06 9.81181e+06 9.81173e+06
          9.81161e+06 9.81145e+06 9.81127e+06 9.81106e+06 9.81082e+06 9.81056e+06 9.81028e+06 9.80997e+06 9.80965e+06 9.80931e+06 9.80895e+06 9.80858e+06
          9.8082e+06 9.80733e+06 9.80638e+06 9.80542e+06 9.80445e+06 9.80347e+06 9.80249e+06 9.8015e+06 9.80051e+06 9.79951e+06 9.79852e+06 9.79752e+06
          9.79652e+06 9.79551e+06 9.79451e+06 9.79351e+06 9.78738e+06 9.78811e+06 9.78885e+06 9.78959e+06 9.79033e+06 9.79106e+06 9.79179e+06 9.79252e+06
          9.79324e+06 9.79396e+06 9.79466e+06 9.79537e+06 9.79606e+06 9.79675e+06 9.79742e+06 9.79808e+06 9.79872e+06 9.79935e+06 9.79996e+06 9.80056e+06
          9.80112e+06 9.80167e+06 9.80218e+06 9.80267e+06 9.80312e+06 9.80355e+06 9.80394e+06 9.80429e+06 9.8046e+06 9.80488e+06 9.80512e+06 9.80532e+06