<?xml version="1.0"?>
<VTKFile type="PolyData" version="0.1" byte_order="LittleEndian">
<PolyData>
<Piece NumberOfLines="0" NumberOfPoints="75">
<Points>
<DataArray type="Float32" Name="Coordinates" NumberOfComponents="3" format="ascii">
3.37418 -5.01456 0.0 4.58681 -6.54806 0.0 -4.69188 4.16896 0.0 3.43902 1.2801 0.0 -3.41801 0.482837 0.0 -7.60508 0.961853 0.0 
2.30187 -3.83271 0.0 -2.39437 -3.2172 0.0 4.11479 -1.13527 0.0 1.50708 -1.60312 0.0 1.61026 -4.86104 0.0 -2.37164 -4.94925 0.0 
-6.08978 -3.44924 0.0 0.304033 -5.61086 0.0 -1.80614 0.302369 0.0 -0.218255 -2.64934 0.0 1.94397 2.21111 0.0 2.29765 3.14889 0.0 
-2.26701 1.96126 0.0 -7.90552 2.5714 0.0 5.06689 -3.56827 0.0 1.72524 -0.331253 0.0 3.09802 5.71238 0.0 0.0180403 -4.18455 0.0 
-2.79716 5.48571 0.0 -0.648921 -0.729324 0.0 -4.99631 -7.13667 0.0 6.36014 -0.187893 0.0 -5.1183 3.05443 0.0 -3.66084 -3.59293 0.0 
-1.8286 -3.57506 0.0 0.680088 -3.77811 0.0 -4.51612 -7.37243 0.0 -0.382561 -0.372344 0.0 6.5483 -1.16641 0.0 -8.12457 -0.491906 0.0 
-1.16561 0.369365 0.0 -0.621317 0.238303 0.0 -5.62174 6.84402 0.0 -1.9467 -4.79848 0.0 7.10292 -4.00804 0.0 -2.70294 -1.17347 0.0 
-8.03318 -0.453179 0.0 7.40204 -3.99947 0.0 -0.271833 1.545 0.0 0.237753 -0.362729 0.0 3.50542 -5.41876 0.0 -2.7084 2.025 0.0 
2.92282 4.938 0.0 2.59342 3.40669 0.0 -1.68149 -5.62089 0.0 -3.27993 1.46144 0.0 -5.76607 4.40923 0.0 -5.31236 -6.33363 0.0 
-3.50355 -7.45217 0.0 4.88229 -0.661366 0.0 0.207598 -1.93343 0.0 -2.08879 -4.1276 0.0 -1.25655 2.99527 0.0 -7.43895 -4.62087 0.0 
-6.40516 -1.35611 0.0 -2.42677 1.88559 0.0 -6.16297 0.981378 0.0 -1.07749 -4.97803 0.0 -2.66727 2.39771 0.0 5.2062 -4.9851 0.0 
1.5029 0.985518 0.0 -3.93228 -1.32748 0.0 0.88452 -0.174719 0.0 0.695208 3.80832 0.0 1.8098 1.26787 0.0 -0.577093 8.86941 0.0 
-5.31843 1.80501 0.0 -1.05509 1.40872 0.0 2.75608 -4.27489 0.0 
</DataArray>
</Points>
<PointData Scalars="radius">
<DataArray type="Float32" Name="radius" NumberOfComponents="1" format="ascii">
0.5 0.50202 0.50404 0.506061 0.508081 0.510101 
0.512121 0.514141 0.516162 0.518182 0.520202 0.522222 
0.524242 0.526263 0.528283 0.530303 0.532323 0.534343 
0.536364 0.538384 0.540404 0.542424 0.544444 0.546465 
0.548485 0.550505 0.552525 0.554545 0.556566 0.558586 
0.560606 0.562626 0.564646 0.566667 0.568687 0.570707 
0.572727 0.574747 0.576768 0.578788 0.580808 0.582828 
0.584848 0.586869 0.588889 0.590909 0.592929 0.594949 
0.59697 0.59899 0.60101 0.60303 0.605051 0.607071 
0.609091 0.611111 0.613131 0.615152 0.617172 0.619192 
0.621212 0.623232 0.625253 0.627273 0.629293 0.631313 
0.633333 0.635354 0.637374 0.639394 0.641414 0.643434 
0.645455 0.647475 0.649495 
</DataArray>
</PointData>
</Piece>
</PolyData>
</VTKFile>