<?xml version="1.0"?>
<VTKFile type="UnstructuredGrid" version="0.1" byte_order="LittleEndian">
  <UnstructuredGrid>
    <Piece NumberOfCells="4096" NumberOfPoints="4225">
      <PointData Scalars="S_liq">
        <DataArray type="Float32" Name="S_liq" NumberOfComponents="1" format="ascii">
          1 1 1 1 1 1 1 1 1 1 1 1
          1 1 1 1 1 1 1 1 1 1 1 1
          1 1 1 1 1 1 1 1 1 1 1 1
          1 1 1 1 1 1 1 1 1 1 1 0.973699
          0.8 0.84229 0.8 0.83866 0.8 0.840125 0.8 0.840978 0.8 0.841321 0.8 0.841183
          0.8 0.840218 0.8 0.835903 0.8 0.805952 0.8 0.803636 0.8 0.80284 0.8 0.802288
          0.8 0.801708 0.8 0.800969 0.8 0.799944 0.8 0.799008 0.8 0.808505 0.96508 0.939563
          1 1 1 1 1 1 1 1 1 1 1 1
          1 1 1 1 1 1 1 1 1 1 1 1
          1 1 1 1 1 1 1 1 1 1 1 1
          1 1 1 1 1 1 1 1 1 1 1 1
          1 1 1 1 1 1 1 1 1 1 1 1
          1 1 1 1 1 1 1 1 1 1 0.883212 0.884751
          0.887564 0.888988 0.889563 0.889377 0.887987 0.881406 0.84097 0.837108 0.835889 0.834987 0.83401 0.832752
          0.83097 0.828939 0.837808 0.974203 1 1 1 1 1 1 1 1
          1 1 1 1 1 1 1 1 1 1 1 1
          1 1 1 1 1 1 1 1 1 1 1 1
          1 1 1 1 1 1 1 1 1 1 1 1
          1 1 1 0.968 0.972936 0.976295 0.977985 0.978676 0.978509 0.977064 0.969875 0.912035
          0.906287 0.904216 0.902528 0.900649 0.898242 0.894836 0.890298 0.898795 1 1 1 1
          1 1 1 1 1 1 1 1 1 1 1 1
          1 1 1 1 1 1 1 1 1 1 1 1
          1 1 1 1 1 1 1 1 1 1 1 1
          1 1 1 1 1 1 1 1 1 1 1 1
          1 1 1 1 1 1 1 1 0.999277 0.997933 0.995923 0.993025
          0.997997 1 1 1 1 1 1 1 1 1 1 1
          1 1 1 1 1 1 1 1 1 1 1 1
          1 1 1 1 1 1 1 1 1 1 1 1
          1 1 1 1 1 1 1 1 1 1 1 1
          1 1 1 1 1 1 1 1 1 1 1 1
          1 1 1 1 1 1 1 1 1 1 1 1
          1 1 1 1 1 1 1 1 1 1 1 1
          1 1 1 1 1 1 1 1 1 1 1 1
          1 1 1 1 1 1 1 1 1 1 1 1
          1 1 1 1 1 1 1 1 1 1 1 1
          1 1 1 1 1 1 1 1 1 1 1 1
          1 1 1 1 1 1 1 1 1 1 1 1
          1 1 1 1 1 1 1 1 1 1 1 1
          1 1 1 1 1 1 1 1 1 1 1 1
          1 1 1 1 1 1 1 1 1 1 1 1
          1 1 1 1 1 1 1 1 1 1 1 1
          1 1 1 1 1 1 1 1 1 1 1 1
          1 1 1 1 1 1 1 1 1 1 1 1
          1 1 1 1 1 1 1 1 1 1 1 1
          1 1 1 1 1 1 1 1 1 1 1 1
          1 1 1 1 1 1 1 1 1 1 1 1
          1 1 1 1 1 1 1 1 1 1 1 1
          1 1 1 1 1 1 1 1 1 1 1 1
          1 1 1 1 1 1 1 1 1 1 1 1
          1 1 1 1 1 1 1 1 1 1 1 1
          1 1 1 1 1 1 1 1 1 1 1 1
          1 1 1 1 1 1 1 1 1 1 1 1
          1 1 1 1 1 1 1 1 1 1 1 1
          1 1 1 1 1 1 1 1 1 1 1 1
          1 1 1 1 1 1 1 1 1 1 1 1
          1 1 1 1 1 1 1 1 1 1 1 1
          1 1 1 1 1 1 1 1 1 1 1 1
          1 1 1 1 1 1 1 1 1 1 1 1
          1 1 1 1 1 1 1 1 1 1 1 1
          1 1 1 1 1 1 1 1 1 1 1 1
          1 1 1 1 1 1 1 1 1 1 1 1
          1 1 1 1 1 1 1 1 1 1 1 1
          1 1 1 1 1 1 1 1 1 1 1 1
          1 1 1 1 1 1 1 1 1 1 1 1
          1 1 1 1 1 1 1 1 1 1 1 1
          1 1 1 1 1 1 1 1 1 1 1 1
          1 1 1 1 1 1 1 1 1 1 1 1
          1 1 1 1 1 1 1 1 1 1 1 1
          1 1 1 1 1 1 1 1 1 1 1 1
          1 1 1 1 1 1 1 1 1 1 1 1
          1 1 1 1 1 1 1 1 1 1 1 1
          1 1 1 1 1 1 1 1 1 1 1 1
          1 1 1 1 1 1 1 1 1 1 1 1
          1 1 1 1 1 1 1 1 1 1 1 1
          1 1 1 1 1 1 1 1 1 1 1 1
          1 1 1 1 1 1 1 1 1 1 1 1
          1 1 1 1 1 1 1 1 1 1 1 1
          1 1 1 1 1 1 1 1 1 1 1 1
          1 1 1 1 1 1 1 1 1 1 1 1
          1 1 1 1 1 1 1 1 1 1 1 1
          1 1 1 1 1 1 1 1 1 1 1 1
          1 1 1 1 1 1 1 1 1 1 1 1
          1 1 1 1 1 1 1 1 1 1 1 1
          1 1 1 1 1 1 1 1 1 1 1 1
          1 1 1 1 1 1 1 1 1 1 1 1
          1 1 1 1 1 1 1 1 1 1 1 1
          1 1 1 1 1 1 1 1 1 1 1 1
          1 1 1 1 1 1 1 1 1 1 1 1
          1 1 1 1 1 1 1 1 1 1 1 1
          1 1 1 1 1 1 1 1 1 1 1 1
          1 1 1 1 1 1 1 1 1 1 1 1
          1 1 1 1 1 1 1 1 1 1 1 1
          1 1 1 1 1 1 1 1 1 1 1 1
          1 1 1 1 1 1 1 1 1 1 1 1
          1 1 1 1 1 1 1 1 1 1 1 1
          1 1 1 1 1 1 1 1 1 1 1 1
          1 1 1 1 1 1 1 1 1 1 1 1
          1 1 1 1 1 1 1 1 1 1 1 1
          1 1 1 1 1 1 1 1 1 1 1 1
          1 1 1 1 1 1 1 1 1 1 1 1
          1 1 1 1 1 1 1 1 1 1 1 1
          1 1 1 1 1 1 1 1 1 1 1 1
          1 1 1 1 1 1 1 1 1 1 1 1
          1 1 1 1 1 1 1 1 1 1 1 1
          1 1 1 1 1 1 1 1 1 1 1 1
          1 1 1 1 1 1 1 1 1 1 1 1
          1 1 1 1 1 1 1 1 1 1 1 1
          1 1 1 1 1 1 1 1 1 1 1 1
          1 1 1 1 1 1 1 1 1 1 1 1
          1 1 1 1 1 1 1 1 1 1 1 1
          1 1 1 1 1 1 1 1 1 1 1 1
          1 1 1 1 1 1 1 1 1 1 1 1
          1 1 1 1 1 1 1 1 1 1 1 1
          1 1 1 1 1 1 1 1 1 1 1 1
          1 1 1 1 1 1 1 1 1 1 1 1
          1 1 1 1 1 1 1 1 1 1 1 1
          1 1 1 1 1 1 1 1 1 1 1 1
          1 1 1 1 1 1 1 1 1 1 1 1
          1 1 1 1 1 1 1 1 1 1 1 1
          1 1 1 1 1 1 1 1 1 1 1 1
          1 1 1 1 1 1 1 1 1 1 1 1
          1 1 1 1 1 1 1 1 1 1 1 1
          1 1 1 1 1 1 1 1 1 1 1 1
          1 1 1 1 1 1 1 1 1 1 1 1
          1 1 1 1 1 1 1 1 1 1 1 1
          1 1 1 1 1 1 1 1 1 1 1 1
          1 1 1 1 1 1 1 1 1 1 1 1
          1 1 1 1 1 1 1 1 1 1 1 1
          1 1 1 1 1 1 1 1 1 1 1 1
          1 1 1 1 1 1 1 1 1 1 1 1
          1 1 1 1 1 1 1 1 1 1 1 1
          1 1 1 1 1 1 1 1 1 1 1 1
          1 1 1 1 1 1 1 1 1 1 1 1
          1 1 1 1 1 1 1 1 1 1 1 1
          1 1 1 1 1 1 1 1 1 1 1 1
          1 1 1 1 1 1 1 1 1 1 1 1
          1 1 1 1 1 1 1 1 1 1 1 1
          1 1 1 1 1 1 1 1 1 1 1 1
          1 1 1 1 1 1 1 1 1 1 1 1
          1 1 1 1 1 1 1 1 1 1 1 1
          1 1 1 1 1 1 1 1 1 1 1 1
          1 1 1 1 1 1 1 1 1 1 1 1
          1 1 1 1 1 1 1 1 1 1 1 1
          1 1 1 1 1 1 1 1 1 1 1 1
          1 1 1 1 1 1 1 1 1 1 1 1
          1 1 1 1 1 1 1 1 1 1 1 1
          1 1 1 1 1 1 1 1 1 1 1 1
          1 1 1 1 1 1 1 1 1 1 1 1
          1 1 1 1 1 1 1 1 1 1 1 1
          1 1 1 1 1 1 1 1 1 1 1 1
          1 1 1 1 1 1 1 1 1 1 1 1
          1 1 1 1 1 1 1 1 1 1 1 1
          1 1 1 1 1 1 1 1 1 1 1 1
          1 1 1 1 1 1 1 1 1 1 1 1
          1 1 1 1 1 1 1 1 1 1 1 1
          1 1 1 1 1 1 1 1 1 1 1 1
          1 1 1 1 1 1 1 1 1 1 1 1
          1 1 1 1 1 1 1 1 1 1 1 1
          1 1 1 1 1 1 1 1 1 1 1 1
          1 1 1 1 1 1 1 1 1 1 1 1
          1 1 1 1 1 1 1 1 1 1 1 1
          1 1 1 1 1 1 1 1 1 1 1 1
          1 1 1 1 1 1 1 1 1 1 1 1
          1 1 1 1 1 1 1 1 1 1 1 1
          1 1 1 1 1 1 1 1 1 1 1 1
          1 1 1 1 1 1 1 1 1 1 1 1
          1 1 1 1 1 1 1 1 1 1 1 1
          1 1 1 1 1 1 1 1 1 1 1 1
          1 1 1 1 1 1 1 1 1 1 1 1
          1 1 1 1 1 1 1 1 1 1 1 1
          1 1 1 1 1 1 1 1 1 1 1 1
          1 1 1 1 1 1 1 1 1 1 1 1
          1 1 1 1 1 1 1 1 1 1 1 1
          1 1 1 1 1 1 1 1 1 1 1 1
          1 1 1 1 1 1 1 1 1 1 1 1
          1 1 1 1 1 1 1 1 1 1 1 1
          1 1 1 1 1 1 1 1 1 1 1 1
          1 1 1 1 1 1 1 1 1 1 1 1
          1 1 1 1 1 1 1 1 1 1 1 1
          1 1 1 1 1 1 1 1 1 1 1 1
          1 1 1 1 1 1 1 1 1 1 1 1
          1 1 1 1 1 1 1 1 1 1 1 1
          1 1 1 1 1 1 1 1 1 1 1 1
          1 1 1 1 1 1 1 1 1 1 1 1
          1 1 1 1 1 1 1 1 1 1 1 1
          1 1 1 1 1 1 1 1 1 1 1 1
          1 1 1 1 1 1 1 1 1 1 1 1
          1 1 1 1 1 1 1 1 1 1 1 1
          1 1 1 1 1 1 1 1 1 1 1 1
          1 1 1 1 1 1 1 1 1 1 1 1
          1 1 1 1 1 1 1 1 1 1 1 1
          1 1 1 1 1 1 1 1 1 1 1 1
          1 1 1 1 1 1 1 1 1 1 1 1
          1 1 1 1 1 1 1 1 1 1 1 1
          1 1 1 1 1 1 1 1 1 1 1 1
          1 1 1 1 1 1 1 1 1 1 1 1
          1 1 1 1 1 1 1 1 1 1 1 1
          1 1 1 1 1 1 1 1 1 1 1 1
          1 1 1 1 1 1 1 1 1 1 1 1
          1 1 1 1 1 1 1 1 1 1 1 1
          1 1 1 1 1 1 1 1 1 1 1 1
          1 1 1 1 1 1 1 1 1 1 1 1
          1 1 1 1 1 1 1 1 1 1 1 1
          1 1 1 1 1 1 1 1 1 1 1 1
          1 1 1 1 1 1 1 1 1 1 1 1
          1 1 1 1 1 1 1 1 1 1 1 1
          1 1 1 1 1 1 1 1 1 1 1 1
          1 1 1 1 1 1 1 1 1 1 1 1
          1 1 1 1 1 1 1 1 1 1 1 1
          1 1 1 1 1 1 1 1 1 1 1 1
          1 1 1 1 1 1 1 1 1 1 1 1
          1 1 1 1 1 1 1 1 1 1 1 1
          1 1 1 1 1 1 1 1 1 1 1 1
          1 1 1 1 1 1 1 1 1 1 1 1
          1 1 1 1 1 1 1 1 1 1 1 1
          1 1 1 1 1 1 1 1 1 1 1 1
          1 1 1 1 1 1 1 1 1 1 1 1
          1 1 1 1 1 1 1 1 1 1 1 1
          1 1 1 1 1 1 1 1 1 1 1 1
          1 1 1 1 1 1 1 1 1 1 1 1
          1 1 1 1 1 1 1 1 1 1 1 1
          1 1 1 1 1 1 1 1 1 1 1 1
          1 1 1 1 1 1 1 1 1 1 1 1
          1 1 1 1 1 1 1 1 1 1 1 1
          1 1 1 1 1 1 1 1 1 1 1 1
          1 1 1 1 1 1 1 1 1 1 1 1
          1 1 1 1 1 1 1 1 1 1 1 1
          1 1 1 1 1 1 1 1 1 1 1 1
          1 1 1 1 1 1 1 1 1 1 1 1
          1 1 1 1 1 1 1 1 1 1 1 1
          1 1 1 1 1 1 1 1 1 1 1 1
          1 1 1 1 1 1 1 1 1 1 1 1
          1 1 1 1 1 1 1 1 1 1 1 1
          1 1 1 1 1 1 1 1 1 1 1 1
          1 1 1 1 1 1 1 1 1 1 1 1
          1 1 1 1 1 1 1 1 1 1 1 1
          1 1 1 1 1 1 1 1 1 1 1 1
          1 1 1 1 1 1 1 1 1 1 1 1
          1 1 1 1 1 1 1 1 1 1 1 1
          1 1 1 1 1 1 1 1 1 1 1 1
          1 1 1 1 1 1 1 1 1 1 1 1
          1 1 1 1 1 1 1 1 1 1 1 1
          1 1 1 1 1 1 1 1 1 1 1 1
          1 1 1 1 1 1 1 1 1 1 1 1
          1 1 1 1 1 1 1 1 1 1 1 1
          1 1 1 1 1 1 1 1 1 1 1 1
          1 1 1 1 1 1 1 1 1 1 1 1
          1 1 1 1 1 1 1 1 1 1 1 1
          1 1 1 1 1 1 1 1 1 1 1 1
          1 1 1 1 1 1 1 1 1 1 1 1
          1 1 1 1 1 1 1 1 1 1 1 1
          1 1 1 1 1 1 1 1 1 1 1 1
          1 1 1 1 1 1 1 1 1 1 1 1
          1 1 1 1 1 1 1 1 1 1 1 1
          1 1 1 1 1 1 1 1 1 1 1 1
          1 1 1 1 1 1 1 1 1 1 1 1
          1 1 1 1 1 1 1 1 1 1 1 1
          1 1 1 1 1 1 1 1 1 1 1 1
          1 1 1 1 1 1 1 1 1 1 1 1
          1 1 1 1 1 1 1 1 1 1 1 1
          1 1 1 1 1 1 1 1 1 1 1 1
          1 1 1 1 1 1 1 1 1 1 1 1
          1 1 1 1 1 1 1 1 1 1 1 1
          1 1 1 1 1 1 1 1 1 1 1 1
          1 1 1 1 1 1 1 1 1 1 1 1
          1 1 1 1 1 1 1 1 1 1 1 1
          1 1 1 1 1 1 1 1 1 1 1 1
          1 1 1 1 1 1 1 1 1 1 1 1
          1 1 1 1 1 1 1 1 1 1 1 1
          1 1 1 1 1 1 1 1 1 1 1 1
          1 1 1 1 1 1 1 1 1 1 1 1
          1 1 1 1 1 1 1 1 1 1 1 1
          1 1 1 1 1 1 1 1 1 1 1 1
          1 1 1 1 1 1 1 1 1 1 1 1
          1 1 1 1 1 1 1 1 1 1 1 1
          1 1 1 1 1 1 1 1 1 1 1 1
          1 1 1 1 1 1 1 1 1 1 1 1
          1 1 1 1 1 1 1 1 1 1 1 1
          1 1 1 1 1 1 1 1 1 1 1 1
          1 1 1 1 1 1 1 1 1 1 1 1
          1 1 1 1 1 1 1 1 1 1 1 1
          1 1 1 1 1 1 1 1 1 1 1 1
          1 1 1 1 1 1 1 1 1 1 1 1
          1 1 1 1 1 1 1 1 1 1 1 1
          1 1 1 1 1 1 1 1 1 1 1 1
          1 1 1 1 1 1 1 1 1 1 1 1
          1 1 1 1 1 1 1 1 1 1 1 1
          1 1 1 1 1 1 1 1 1 1 1 1
          1 1 1 1 1 1 1 1 1 1 1 1
          1 1 1 1 1 1 1 1 1 1 1 1
          1 1 1 1 1 1 1 1 1 1 1 1
          1 1 1 1 1 1 1 1 1 1 1 1
          1 1 1 1 1 1 1 1 1 1 1 1
          1 1 1 1 1 1 1 1 1 1 1 1
          1 1 1 1 1 1 1 1 1 1 1 1
          1 1 1 1 1 1 1 1 1 1 1 1
          1 1 1 1 1 1 1 1 1 1 1 1
          1 1 1 1 1 1 1 1 1 1 1 1
          1 1 1 1 1 1 1 1 1 1 1 1
          1 1 1 1 1 1 1 1 1 1 1 1
          1 1 1 1 1 1 1 1 1 1 1 1
          1 1 1 1 1 1 1 1 1 1 1 1
          1 1 1 1 1 1 1 1 1 1 1 1
          1 1 1 1 1 1 1 1 1 1 1 1
          1 1 1 1 1 1 1 1 1 1 1 1
          1 1 1 1 1 1 1 1 1 1 1 1
          1 1 1 1 1 1 1 1 1 1 1 1
          1 1 1 1 1 1 1 1 1 1 1 1
          1 1 1 1 1 1 1 1 1 1 1 1
          1 1 1 1 1 1 1 1 1 1 1 1
          1 1 1 1 1 1 1 1 1 1 1 1
          1 1 1 1 1 1 1 1 1 1 1 1
          1 1 1 1 1 1 1 1 1 1 1 1
          1 1 1 1 1 1 1 1 1 1 1 1
          1 1 1 1 1 1 1 1 1 1 1 1
          1 1 1 1 1 1 1 1 1 1 1 1
          1 1 1 1 1 1 1 1 1 1 1 1
          1 1 1 1 1 1 1 1 1 1 1 1
          1 1 1 1 1 1 1 1 1 1 1 1
          1 1 1 1 1 1 1 1 1 1 1 1
          1 1 1 1 1 1 1 1 1 1 1 1
          1 1 1 1 1 1 1 1 1 1 1 1
          1 1 1 1 1 1 1 1 1 1 1 1
          1 1 1 1 1 1 1 1 1 1 1 1
          1 1 1 1 1 1 1 1 1 1 1 1
          1 1 1 1 1 1 1 1 1 1 1 1
          1 1 1 1 1 1 1 1 1 1 1 1
          1 1 1 1 1 1 1 1 1 1 1 1
          1 1 1 1 1 1 1 1 1 1 1 1
          1 1 1 1 1 1 1 1 1 1 1 1
          1 1 1 1 1 1 1 1 1 1 1 1
          1 1 1 1 1 1 1 1 1 1 1 1
          1 1 1 1 1 1 1 1 1 1 1 1
          1 1 1 1 1 1 1 1 1 1 1 1
          1 1 1 1 1 1 1 1 1 1 1 1
          1 1 1 1 1 1 1 1 1 1 1 1
          1 1 1 1 1 1 1 1 1 1 1 1
          1 1 1 1 1 1 1 1 1 1 1 1
          1 1 1 1 1 1 1 1 1 1 1 1
          1 1 1 1 1 1 1 1 1 1 1 1
          1 1 1 1 1 1 1 1 1 1 1 1
          1 1 1 1 1 1 1 1 1 1 1 1
          1 1 1 1 1 1 1 1 1 1 1 1
          1 1 1 1 1 1 1 1 1 1 1 1
          1 1 1 1 1 1 1 1 1 1 1 1
          1 1 1 1 1 1 1 1 1 1 1 1
          1 1 1 1 1 1 1 1 1 1 1 1
          1 1 1 1 1 1 1 1 1 1 1 1
          1 1 1 1 1 1 1 1 1 1 1 1
          1 1 1 1 1 1 1 1 1 1 1 1
          1 1 1 1 1 1 1 1 1 1 1 1
          1 1 1 1 1 1 1 1 1 1 1 1
          1
        </DataArray>
        <DataArray type="Float32" Name="p_liq" NumberOfComponents="1" format="ascii">
          9.91e+06 9.91012e+06 9.90387e+06 9.90401e+06 9.91026e+06 9.90415e+06 9.91041e+06 9.9043e+06 9.91057e+06 9.90446e+06 9.91072e+06 9.90461e+06
          9.91089e+06 9.90478e+06 9.91105e+06 9.90494e+06 9.91122e+06 9.9051e+06 9.91138e+06 9.90527e+06 9.91156e+06 9.90544e+06 9.91173e+06 9.90562e+06
          9.9119e+06 9.90579e+06 9.91208e+06 9.90597e+06 9.91226e+06 9.90615e+06 9.91244e+06 9.90633e+06 9.91262e+06 9.90651e+06 9.9128e+06 9.90669e+06
          9.91298e+06 9.90687e+06 9.91314e+06 9.90704e+06 9.91328e+06 9.90719e+06 9.91337e+06 9.90731e+06 9.91332e+06 9.90735e+06 9.91278e+06 9.90734e+06
          9.91e+06 9.90733e+06 9.91e+06 9.90735e+06 9.91e+06 9.90747e+06 9.91e+06 9.90754e+06 9.91e+06 9.90757e+06 9.91e+06 9.90756e+06
          9.91e+06 9.90749e+06 9.91e+06 9.90728e+06 9.91e+06 9.90676e+06 9.91e+06 9.90663e+06 9.91e+06 9.90656e+06 9.91e+06 9.90652e+06
          9.91e+06 9.90647e+06 9.91e+06 9.90641e+06 9.91e+06 9.90632e+06 9.91e+06 9.9062e+06 9.91e+06 9.90623e+06 9.91176e+06 9.90634e+06
          9.91209e+06 9.9063e+06 9.91209e+06 9.90624e+06 9.91202e+06 9.90615e+06 9.91193e+06 9.90605e+06 9.91186e+06 9.90597e+06 9.91181e+06 9.90592e+06
          9.91181e+06 9.90589e+06 9.91193e+06 9.90589e+06 9.91194e+06 9.90586e+06 9.91187e+06 9.90578e+06 9.91178e+06 9.90568e+06 9.91166e+06 9.90555e+06
          9.91152e+06 9.90542e+06 9.91138e+06 9.90528e+06 9.91123e+06 9.90512e+06 9.91108e+06 9.90497e+06 9.91092e+06 9.90481e+06 9.91076e+06 9.90465e+06
          9.9106e+06 9.90449e+06 9.91044e+06 9.90433e+06 9.91028e+06 9.90417e+06 9.91013e+06 9.90402e+06 9.91e+06 9.90387e+06 9.89774e+06 9.89788e+06
          9.89803e+06 9.89818e+06 9.89834e+06 9.8985e+06 9.89866e+06 9.89882e+06 9.89899e+06 9.89916e+06 9.89933e+06 9.8995e+06 9.89968e+06 9.89986e+06
          9.90004e+06 9.90022e+06 9.9004e+06 9.90059e+06 9.90077e+06 9.90096e+06 9.90114e+06 9.90132e+06 9.90152e+06 9.90178e+06 9.90282e+06 9.90333e+06
          9.90356e+06 9.90368e+06 9.90372e+06 9.90371e+06 9.90362e+06 9.90338e+06 9.90272e+06 9.90255e+06 9.90246e+06 9.9024e+06 9.90234e+06 9.90224e+06
          9.90209e+06 9.90185e+06 9.90144e+06 9.90091e+06 9.90058e+06 9.90042e+06 9.90028e+06 9.90016e+06 9.90006e+06 9.89999e+06 9.89994e+06 9.8999e+06
          9.89981e+06 9.89971e+06 9.89959e+06 9.89946e+06 9.89932e+06 9.89917e+06 9.89902e+06 9.89886e+06 9.8987e+06 9.89854e+06 9.89838e+06 9.89821e+06
          9.89805e+06 9.89789e+06 9.89774e+06 9.89161e+06 9.89176e+06 9.89191e+06 9.89206e+06 9.89222e+06 9.89238e+06 9.89254e+06 9.89271e+06 9.89288e+06
          9.89304e+06 9.89322e+06 9.89339e+06 9.89356e+06 9.89374e+06 9.89392e+06 9.89411e+06 9.89429e+06 9.89448e+06 9.89468e+06 9.89488e+06 9.89509e+06
          9.89532e+06 9.89562e+06 9.89609e+06 9.89714e+06 9.89767e+06 9.89792e+06 9.89806e+06 9.89812e+06 9.89811e+06 9.89804e+06 9.89787e+06 9.89751e+06
          9.89737e+06 9.89728e+06 9.89723e+06 9.89718e+06 9.8971e+06 9.89694e+06 9.89664e+06 9.89609e+06 9.89514e+06 9.89481e+06 9.89457e+06 9.89439e+06
          9.89424e+06 9.89413e+06 9.89404e+06 9.89397e+06 9.89391e+06 9.89379e+06 9.89366e+06 9.89352e+06 9.89338e+06 9.89323e+06 9.89308e+06 9.89292e+06
          9.89276e+06 9.8926e+06 9.89243e+06 9.89226e+06 9.8921e+06 9.89193e+06 9.89177e+06 9.89161e+06 9.88548e+06 9.88563e+06 9.88579e+06 9.88594e+06
          9.8861e+06 9.88626e+06 9.88642e+06 9.88659e+06 9.88676e+06 9.88693e+06 9.8871e+06 9.88727e+06 9.88745e+06 9.88762e+06 9.88781e+06 9.88799e+06
          9.88818e+06 9.88837e+06 9.88857e+06 9.88878e+06 9.88901e+06 9.88928e+06 9.8896e+06 9.89004e+06 9.89054e+06 9.89096e+06 9.89124e+06 9.89141e+06
          9.89149e+06 9.8915e+06 9.89143e+06 9.89127e+06 9.891e+06 9.8909e+06 9.89082e+06 9.89077e+06 9.89078e+06 9.89073e+06 9.89058e+06 9.89031e+06
          9.88986e+06 9.88932e+06 9.88893e+06 9.88866e+06 9.88846e+06 9.8883e+06 9.88817e+06 9.88807e+06 9.88799e+06 9.88792e+06 9.88777e+06 9.88762e+06
          9.88746e+06 9.88731e+06 9.88715e+06 9.88699e+06 9.88683e+06 9.88666e+06 9.88649e+06 9.88632e+06 9.88615e+06 9.88598e+06 9.88581e+06 9.88564e+06
          9.88548e+06 9.87934e+06 9.8795e+06 9.87966e+06 9.87982e+06 9.87998e+06 9.88014e+06 9.8803e+06 9.88047e+06 9.88064e+06 9.88081e+06 9.88098e+06
          9.88115e+06 9.88133e+06 9.8815e+06 9.88169e+06 9.88187e+06 9.88206e+06 9.88226e+06 9.88246e+06 9.88267e+06 9.88291e+06 9.88317e+06 9.88347e+06
          9.88382e+06 9.88418e+06 9.88449e+06 9.88474e+06 9.8849e+06 9.88499e+06 9.88501e+06 9.88497e+06 9.88486e+06 9.8847e+06 9.88463e+06 9.88456e+06
          9.8845e+06 9.88444e+06 9.88434e+06 9.88418e+06 9.88393e+06 9.88362e+06 9.88327e+06 9.88295e+06 9.8827e+06 9.88249e+06 9.88233e+06 9.8822e+06
          9.88208e+06 9.88199e+06 9.88191e+06 9.88174e+06 9.88157e+06 9.8814e+06 9.88124e+06 9.88107e+06 9.8809e+06 9.88073e+06 9.88056e+06 9.88039e+06
          9.88021e+06 9.88004e+06 9.87987e+06 9.87969e+06 9.87952e+06 9.87934e+06 9.87321e+06 9.87337e+06 9.87353e+06 9.87369e+06 9.87385e+06 9.87402e+06
          9.87418e+06 9.87435e+06 9.87452e+06 9.87468e+06 9.87486e+06 9.87503e+06 9.8752e+06 9.87538e+06 9.87556e+06 9.87575e+06 9.87594e+06 9.87613e+06
          9.87633e+06 9.87655e+06 9.87678e+06 9.87702e+06 9.87729e+06 9.87758e+06 9.87786e+06 9.87811e+06 9.87832e+06 9.87846e+06 9.87855e+06 9.87859e+06
          9.87857e+06 9.8785e+06 9.8784e+06 9.87835e+06 9.87829e+06 9.87822e+06 9.87814e+06 9.87803e+06 9.87787e+06 9.87766e+06 9.87742e+06 9.87716e+06
          9.8769e+06 9.87668e+06 9.87649e+06 9.87633e+06 9.87619e+06 9.87608e+06 9.87598e+06 9.87589e+06 9.87571e+06 9.87552e+06 9.87535e+06 9.87517e+06
          9.87499e+06 9.87482e+06 9.87464e+06 9.87446e+06 9.87428e+06 9.87411e+06 9.87393e+06 9.87375e+06 9.87357e+06 9.87339e+06 9.87321e+06 9.86708e+06
          9.86724e+06 9.8674e+06 9.86756e+06 9.86773e+06 9.86789e+06 9.86806e+06 9.86822e+06 9.86839e+06 9.86856e+06 9.86873e+06 9.8689e+06 9.86908e+06
          9.86926e+06 9.86944e+06 9.86962e+06 9.86981e+06 9.87e+06 9.8702e+06 9.87041e+06 9.87062e+06 9.87085e+06 9.87109e+06 9.87133e+06 9.87156e+06
          9.87178e+06 9.87195e+06 9.87209e+06 9.87218e+06 9.87222e+06 9.87222e+06 9.87218e+06 9.87212e+06 9.87208e+06 9.87202e+06 9.87195e+06 9.87187e+06
          9.87176e+06 9.87161e+06 9.87144e+06 9.87124e+06 9.87103e+06 9.87082e+06 9.87063e+06 9.87046e+06 9.8703e+06 9.87017e+06 9.87005e+06 9.86995e+06
          9.86986e+06 9.86967e+06 9.86947e+06 9.86929e+06 9.8691e+06 9.86892e+06 9.86873e+06 9.86855e+06 9.86837e+06 9.86818e+06 9.868e+06 9.86782e+06
          9.86763e+06 9.86745e+06 9.86726e+06 9.86708e+06 9.86095e+06 9.86111e+06 9.86128e+06 9.86144e+06 9.8616e+06 9.86176e+06 9.86193e+06 9.8621e+06
          9.86226e+06 9.86243e+06 9.8626e+06 9.86278e+06 9.86295e+06 9.86313e+06 9.86331e+06 9.86349e+06 9.86367e+06 9.86386e+06 9.86406e+06 9.86425e+06
          9.86446e+06 9.86467e+06 9.86488e+06 9.8651e+06 9.8653e+06 9.86548e+06 9.86563e+06 9.86576e+06 9.86584e+06 9.86589e+06 9.86591e+06 9.86589e+06
          9.86585e+06 9.86582e+06 9.86577e+06 9.8657e+06 9.86562e+06 9.86552e+06 9.86539e+06 9.86524e+06 9.86508e+06 9.8649e+06 9.86473e+06 9.86456e+06
          9.8644e+06 9.86426e+06 9.86413e+06 9.86402e+06 9.86391e+06 9.86382e+06 9.86362e+06 9.86342e+06 9.86322e+06 9.86303e+06 9.86284e+06 9.86265e+06
          9.86246e+06 9.86227e+06 9.86208e+06 9.86189e+06 9.8617e+06 9.86152e+06 9.86133e+06 9.86114e+06 9.86095e+06 9.85482e+06 9.85498e+06 9.85514e+06
          9.85531e+06 9.85547e+06 9.85564e+06 9.8558e+06 9.85597e+06 9.85614e+06 9.85631e+06 9.85648e+06 9.85665e+06 9.85682e+06 9.857e+06 9.85717e+06
          9.85735e+06 9.85753e+06 9.85772e+06 9.85791e+06 9.8581e+06 9.85829e+06 9.85848e+06 9.85868e+06 9.85887e+06 9.85905e+06 9.85921e+06 9.85935e+06
          9.85946e+06 9.85954e+06 9.8596e+06 9.85962e+06 9.85962e+06 9.8596e+06 9.85957e+06 9.85953e+06 9.85947e+06 9.8594e+06 9.8593e+06 9.85919e+06
          9.85906e+06 9.85892e+06 9.85877e+06 9.85862e+06 9.85848e+06 9.85833e+06 9.8582e+06 9.85808e+06 9.85797e+06 9.85787e+06 9.85777e+06 9.85757e+06
          9.85736e+06 9.85716e+06 9.85696e+06 9.85676e+06 9.85656e+06 9.85637e+06 9.85617e+06 9.85598e+06 9.85579e+06 9.85559e+06 9.8554e+06 9.85521e+06
          9.85501e+06 9.85482e+06 9.84869e+06 9.84885e+06 9.84902e+06 9.84918e+06 9.84934e+06 9.84951e+06 9.84968e+06 9.84984e+06 9.85001e+06 9.85018e+06
          9.85035e+06 9.85052e+06 9.85069e+06 9.85086e+06 9.85104e+06 9.85121e+06 9.85139e+06 9.85157e+06 9.85175e+06 9.85194e+06 9.85212e+06 9.8523e+06
          9.85248e+06 9.85265e+06 9.85281e+06 9.85296e+06 9.85309e+06 9.85319e+06 9.85328e+06 9.85333e+06 9.85337e+06 9.85338e+06 9.85336e+06 9.85334e+06
          9.85331e+06 9.85326e+06 9.85319e+06 9.85311e+06 9.85301e+06 9.8529e+06 9.85278e+06 9.85265e+06 9.85252e+06 9.85238e+06 9.85226e+06 9.85213e+06
          9.85202e+06 9.85191e+06 9.85181e+06 9.85172e+06 9.8515e+06 9.85129e+06 9.85108e+06 9.85088e+06 9.85068e+06 9.85048e+06 9.85028e+06 9.85008e+06
          9.84988e+06 9.84968e+06 9.84948e+06 9.84928e+06 9.84908e+06 9.84889e+06 9.84869e+06 9.84256e+06 9.84272e+06 9.84288e+06 9.84305e+06 9.84322e+06
          9.84338e+06 9.84355e+06 9.84371e+06 9.84388e+06 9.84405e+06 9.84422e+06 9.84439e+06 9.84456e+06 9.84473e+06 9.8449e+06 9.84508e+06 9.84525e+06
          9.84542e+06 9.8456e+06 9.84577e+06 9.84595e+06 9.84612e+06 9.84629e+06 9.84645e+06 9.8466e+06 9.84673e+06 9.84685e+06 9.84695e+06 9.84703e+06
          9.84709e+06 9.84713e+06 9.84715e+06 9.84715e+06 9.84713e+06 9.8471e+06 9.84706e+06 9.847e+06 9.84693e+06 9.84684e+06 9.84674e+06 9.84664e+06
          9.84652e+06 9.84641e+06 9.84629e+06 9.84617e+06 9.84606e+06 9.84595e+06 9.84584e+06 9.84574e+06 9.84565e+06 9.84544e+06 9.84522e+06 9.84501e+06
          9.8448e+06 9.8446e+06 9.84439e+06 9.84418e+06 9.84398e+06 9.84378e+06 9.84357e+06 9.84337e+06 9.84317e+06 9.84296e+06 9.84276e+06 9.84256e+06
          9.83642e+06 9.83659e+06 9.83676e+06 9.83692e+06 9.83708e+06 9.83725e+06 9.83742e+06 9.83758e+06 9.83775e+06 9.83792e+06 9.83809e+06 9.83826e+06
          9.83842e+06 9.83859e+06 9.83876e+06 9.83893e+06 9.8391e+06 9.83928e+06 9.83944e+06 9.83961e+06 9.83978e+06 9.83994e+06 9.8401e+06 9.84025e+06
          9.84039e+06 9.84052e+06 9.84063e+06 9.84073e+06 9.84081e+06 9.84087e+06 9.84092e+06 9.84094e+06 9.84095e+06 9.84094e+06 9.84091e+06 9.84088e+06
          9.84082e+06 9.84076e+06 9.84068e+06 9.8406e+06 9.8405e+06 9.8404e+06 9.8403e+06 9.84019e+06 9.84008e+06 9.83998e+06 9.83987e+06 9.83977e+06
          9.83968e+06 9.83958e+06 9.83937e+06 9.83915e+06 9.83894e+06 9.83872e+06 9.83851e+06 9.8383e+06 9.83809e+06 9.83788e+06 9.83767e+06 9.83746e+06
          9.83726e+06 9.83705e+06 9.83684e+06 9.83663e+06 9.83642e+06 9.83029e+06 9.83046e+06 9.83062e+06 9.83079e+06 9.83096e+06 9.83112e+06 9.83129e+06
          9.83145e+06 9.83162e+06 9.83179e+06 9.83195e+06 9.83212e+06 9.83229e+06 9.83246e+06 9.83262e+06 9.83279e+06 9.83296e+06 9.83313e+06 9.83329e+06
          9.83346e+06 9.83362e+06 9.83377e+06 9.83392e+06 9.83406e+06 9.8342e+06 9.83432e+06 9.83443e+06 9.83453e+06 9.83461e+06 9.83467e+06 9.83472e+06
          9.83476e+06 9.83476e+06 9.83476e+06 9.83474e+06 9.83471e+06 9.83466e+06 9.83461e+06 9.83454e+06 9.83446e+06 9.83438e+06 9.83429e+06 9.83419e+06
          9.8341e+06 9.834e+06 9.8339e+06 9.8338e+06 9.8337e+06 9.8336e+06 9.83351e+06 9.8333e+06 9.83308e+06 9.83286e+06 9.83264e+06 9.83243e+06
          9.83221e+06 9.832e+06 9.83178e+06 9.83157e+06 9.83136e+06 9.83114e+06 9.83093e+06 9.83072e+06 9.83051e+06 9.83029e+06 9.82416e+06 9.82433e+06
          9.82449e+06 9.82466e+06 9.82482e+06 9.82499e+06 9.82516e+06 9.82532e+06 9.82549e+06 9.82566e+06 9.82582e+06 9.82599e+06 9.82616e+06 9.82632e+06
          9.82649e+06 9.82665e+06 9.82682e+06 9.82698e+06 9.82714e+06 9.8273e+06 9.82746e+06 9.82761e+06 9.82775e+06 9.82789e+06 9.82802e+06 9.82814e+06
          9.82824e+06 9.82834e+06 9.82842e+06 9.82849e+06 9.82854e+06 9.82858e+06 9.82859e+06 9.82859e+06 9.82857e+06 9.82855e+06 9.82851e+06 9.82846e+06
          9.8284e+06 9.82834e+06 9.82826e+06 9.82818e+06 9.82809e+06 9.828e+06 9.82791e+06 9.82781e+06 9.82772e+06 9.82762e+06 9.82753e+06 9.82744e+06
          9.82722e+06 9.827e+06 9.82678e+06 9.82656e+06 9.82634e+06 9.82612e+06 9.8259e+06 9.82568e+06 9.82547e+06 9.82525e+06 9.82503e+06 9.82482e+06
          9.8246e+06 9.82438e+06 9.82416e+06 9.81803e+06 9.8182e+06 9.81836e+06 9.81853e+06 9.8187e+06 9.81886e+06 9.81903e+06 9.81919e+06 9.81936e+06
          9.81952e+06 9.81969e+06 9.81986e+06 9.82002e+06 9.82019e+06 9.82035e+06 9.82051e+06 9.82068e+06 9.82084e+06 9.82099e+06 9.82115e+06 9.8213e+06
          9.82145e+06 9.82159e+06 9.82172e+06 9.82185e+06 9.82196e+06 9.82207e+06 9.82216e+06 9.82225e+06 9.82232e+06 9.82237e+06 9.82242e+06 9.82243e+06
          9.82243e+06 9.82242e+06 9.8224e+06 9.82237e+06 9.82233e+06 9.82228e+06 9.82222e+06 9.82215e+06 9.82207e+06 9.82199e+06 9.82191e+06 9.82182e+06
          9.82173e+06 9.82164e+06 9.82154e+06 9.82145e+06 9.82136e+06 9.82114e+06 9.82092e+06 9.8207e+06 9.82048e+06 9.82025e+06 9.82003e+06 9.81981e+06
          9.81959e+06 9.81936e+06 9.81914e+06 9.81892e+06 9.8187e+06 9.81848e+06 9.81825e+06 9.81803e+06 9.8119e+06 9.81207e+06 9.81223e+06 9.8124e+06
          9.81256e+06 9.81273e+06 9.8129e+06 9.81306e+06 9.81323e+06 9.81339e+06 9.81356e+06 9.81372e+06 9.81389e+06 9.81405e+06 9.81421e+06 9.81438e+06
          9.81453e+06 9.81469e+06 9.81485e+06 9.815e+06 9.81515e+06 9.81529e+06 9.81543e+06 9.81556e+06 9.81568e+06 9.8158e+06 9.81591e+06 9.816e+06
          9.81609e+06 9.81616e+06 9.81622e+06 9.81627e+06 9.81628e+06 9.81629e+06 9.81628e+06 9.81627e+06 9.81624e+06 9.8162e+06 9.81616e+06 9.8161e+06
          9.81604e+06 9.81597e+06 9.8159e+06 9.81582e+06 9.81574e+06 9.81565e+06 9.81556e+06 9.81547e+06 9.81538e+06 9.81528e+06 9.81507e+06 9.81484e+06
          9.81462e+06 9.81439e+06 9.81417e+06 9.81394e+06 9.81371e+06 9.81349e+06 9.81326e+06 9.81303e+06 9.81281e+06 9.81258e+06 9.81235e+06 9.81213e+06
          9.8119e+06 9.80577e+06 9.80594e+06 9.8061e+06 9.80627e+06 9.80643e+06 9.8066e+06 9.80677e+06 9.80693e+06 9.8071e+06 9.80726e+06 9.80743e+06
          9.80759e+06 9.80775e+06 9.80792e+06 9.80808e+06 9.80824e+06 9.8084e+06 9.80855e+06 9.8087e+06 9.80886e+06 9.809e+06 9.80914e+06 9.80928e+06
          9.80941e+06 9.80953e+06 9.80965e+06 9.80975e+06 9.80985e+06 9.80994e+06 9.81001e+06 9.81008e+06 9.81013e+06 9.81015e+06 9.81016e+06 9.81016e+06
          9.81014e+06 9.81012e+06 9.81009e+06 9.81005e+06 9.81e+06 9.80994e+06 9.80988e+06 9.80981e+06 9.80973e+06 9.80965e+06 9.80957e+06 9.80948e+06
          9.80939e+06 9.8093e+06 9.80921e+06 9.80899e+06 9.80877e+06 9.80854e+06 9.80831e+06 9.80808e+06 9.80785e+06 9.80762e+06 9.80739e+06 9.80716e+06
          9.80693e+06 9.8067e+06 9.80646e+06 9.80623e+06 9.806e+06 9.80577e+06 9.79964e+06 9.7998e+06 9.79997e+06 9.80014e+06 9.8003e+06 9.80047e+06
          9.80064e+06 9.8008e+06 9.80097e+06 9.80113e+06 9.8013e+06 9.80146e+06 9.80162e+06 9.80178e+06 9.80194e+06 9.8021e+06 9.80226e+06 9.80241e+06
          9.80257e+06 9.80272e+06 9.80286e+06 9.803e+06 9.80314e+06 9.80326e+06 9.80339e+06 9.8035e+06 9.80361e+06 9.80371e+06 9.8038e+06 9.80388e+06
          9.80395e+06 9.804e+06 9.80402e+06 9.80404e+06 9.80404e+06 9.80403e+06 9.80401e+06 9.80398e+06 9.80394e+06 9.8039e+06 9.80385e+06 9.80379e+06
          9.80372e+06 9.80365e+06 9.80358e+06 9.8035e+06 9.80341e+06 9.80332e+06 9.80323e+06 9.80314e+06 9.80292e+06 9.80269e+06 9.80246e+06 9.80223e+06
          9.80199e+06 9.80176e+06 9.80153e+06 9.80129e+06 9.80106e+06 9.80082e+06 9.80058e+06 9.80035e+06 9.80011e+06 9.79987e+06 9.79964e+06 9.79351e+06
          9.79367e+06 9.79384e+06 9.79401e+06 9.79417e+06 9.79434e+06 9.79451e+06 9.79467e+06 9.79484e+06 9.795e+06 9.79516e+06 9.79533e+06 9.79549e+06
          9.79565e+06 9.79581e+06 9.79597e+06 9.79612e+06 9.79628e+06 9.79643e+06 9.79658e+06 9.79672e+06 9.79686e+06 9.797e+06 9.79713e+06 9.79725e+06
          9.79737e+06 9.79748e+06 9.79758e+06 9.79767e+06 9.79775e+06 9.79783e+06 9.79789e+06 9.79791e+06 9.79792e+06 9.79793e+06 9.79792e+06 9.79791e+06
          9.79788e+06 9.79785e+06 9.79781e+06 9.79776e+06 9.79771e+06 9.79764e+06 9.79758e+06 9.7975e+06 9.79742e+06 9.79734e+06 9.79725e+06 9.79716e+06
          9.79707e+06 9.79685e+06 9.79662e+06 9.79638e+06 9.79615e+06 9.79591e+06 9.79567e+06 9.79543e+06 9.79519e+06 9.79495e+06 9.79471e+06 9.79447e+06
          9.79423e+06 9.79399e+06 9.79375e+06 9.79351e+06 9.78738e+06 9.78754e+06 9.78771e+06 9.78788e+06 9.78804e+06 9.78821e+06 9.78838e+06 9.78854e+06
          9.78871e+06 9.78887e+06 9.78904e+06 9.7892e+06 9.78936e+06 9.78952e+06 9.78968e+06 9.78984e+06 9.78999e+06 9.79015e+06 9.7903e+06 9.79044e+06
          9.79059e+06 9.79073e+06 9.79086e+06 9.79099e+06 9.79112e+06 9.79124e+06 9.79135e+06 9.79145e+06 9.79155e+06 9.79164e+06 9.79171e+06 9.79178e+06
          9.79181e+06 9.79182e+06 9.79183e+06 9.79183e+06 9.79182e+06 9.7918e+06 9.79177e+06 9.79173e+06 9.79168e+06 9.79163e+06 9.79157e+06 9.79151e+06